LAMMPS (22 Aug 2018)
#!/bin/sh

# Setup
echo		screen
  restoring atom style hybrid from restart
  orthogonal box = (0 0 -0.5) to (70 70 0.5)
  3 by 2 by 1 MPI processor grid
  restoring pair style hybrid/overlay from restart
  restoring bond style harmonic from restart
  restoring angle style actharmonic from restart
  237 atoms
  29 bonds
  28 angles
  2 = max # of 1-2 neighbors
  2 = max # of 1-3 neighbors
  4 = max # of 1-4 neighbors
  6 = max # of special neighbors
30 atoms in group chain
207 atoms in group obs
WARNING: Using 'neigh_modify every 1 delay 0 check yes' setting during minimization (../min.cpp:168)
Neighbor list info ...
  update every 1 steps, delay 0 steps, check yes
  max neighbors/atom: 2000, page size: 100000
  master list distance cutoff = 4.8
  ghost atom cutoff = 4.8
  binsize = 2.4, bins = 30 30 1
  3 neighbor lists, perpetual/occasional/extra = 3 0 0
  (1) pair lj/cut, perpetual, skip from (3)
      attributes: half, newton off
      pair build: skip
      stencil: none
      bin: none
  (2) pair gayberne, perpetual, skip from (3)
      attributes: half, newton off
      pair build: skip
      stencil: none
      bin: none
  (3) neighbor class addition, perpetual
      attributes: half, newton off
      pair build: half/bin/newtoff
      stencil: half/bin/2d/newtoff
      bin: standard
Per MPI rank memory allocation (min/avg/max) = 9.005 | 9.195 | 10.14 Mbytes
Step Temp E_pair E_mol TotEng Press 
 2000000    457.87475     10342167   0.41872116     10342623    2123395.7 
 2000144    457.87475   -883.93712   0.67628996   -427.31805    20.831648 
Loop time of 0.0154082 on 6 procs for 144 steps with 237 atoms

96.4% CPU use with 6 MPI tasks x no OpenMP threads

Minimization stats:
  Stopping criterion = energy tolerance
  Energy initial, next-to-last, final = 
         10342167.2543     -883.199491685     -883.260833948
  Force two-norm initial, final = 2.10757e+11 508.034
  Force max component initial, final = 1.32381e+11 173.536
  Final line search alpha, max atom move = 0.00026316 0.0456677
  Iterations, force evaluations = 144 237

MPI task timing breakdown:
Section |  min time  |  avg time  |  max time  |%varavg| %total
---------------------------------------------------------------
Pair    | 0.003005   | 0.005918   | 0.009872   |   2.8 | 38.41
Bond    | 1.8e-05    | 0.000123   | 0.000431   |   0.0 |  0.80
Neigh   | 0.000923   | 0.00094817 | 0.000975   |   0.0 |  6.15
Comm    | 0.001434   | 0.001518   | 0.001577   |   0.1 |  9.85
Output  | 0          | 0          | 0          |   0.0 |  0.00
Modify  | 0          | 0          | 0          |   0.0 |  0.00
Other   |            | 0.006901   |            |       | 44.79

Nlocal:    39.5 ave 58 max 28 min
Histogram: 1 0 2 0 2 0 0 0 0 1
Nghost:    33 ave 39 max 27 min
Histogram: 2 0 0 0 1 0 1 0 1 1
Neighs:    0 ave 0 max 0 min
Histogram: 6 0 0 0 0 0 0 0 0 0

Total # of neighbors = 0
Ave neighs/atom = 0
Ave special neighs/atom = 0.708861
Neighbor list builds = 61
Dangerous builds = 0
WARNING: One or more atoms are time integrated more than once (../modify.cpp:279)
Neighbor list info ...
  update every 1 steps, delay 0 steps, check yes
  max neighbors/atom: 2000, page size: 100000
  master list distance cutoff = 5.3
  ghost atom cutoff = 5.3
  binsize = 2.65, bins = 27 27 1
  3 neighbor lists, perpetual/occasional/extra = 3 0 0
  (1) pair lj/cut, perpetual, skip from (3)
      attributes: half, newton off
      pair build: skip
      stencil: none
      bin: none
  (2) pair gayberne, perpetual, skip from (3)
      attributes: half, newton off
      pair build: skip
      stencil: none
      bin: none
  (3) neighbor class addition, perpetual
      attributes: half, newton off
      pair build: half/bin/newtoff
      stencil: half/bin/2d/newtoff
      bin: standard
Per MPI rank memory allocation (min/avg/max) = 10.78 | 10.84 | 11.17 Mbytes
Step Temp E_pair E_mol TotEng Press 
       0    457.87475   -884.97582   0.67628996   -428.35674    20.674457 
    1000    443.80881   -453.61483   0.53067305   -11.147961    45.458247 
    2000    454.13902   -468.79863     0.436876   -16.138936    46.010309 
    3000    448.94973   -430.58703   0.56804489    17.036441    27.339811 
    4000    459.00273   -472.55649   0.48491001   -15.005567    32.977929 
    5000    468.34442   -465.41699   0.58777811    1.5390654    14.302398 
    6000    425.44873    -432.8312   0.66547277   -8.5121373    17.633545 
    7000    459.53415   -414.68802   0.47453331    43.381696     31.63109 
    8000     450.5335   -419.27804   0.51570725    29.870187    29.546809 
    9000    416.27298   -422.50528   0.54532141   -7.4434044    33.578879 
   10000    479.55812   -502.20019   0.63804986   -24.027476    15.133618 
   11000    456.15596   -469.53421   0.52657422   -14.776385     34.30424 
   12000     447.4645   -468.07487   0.69927807   -21.799128    35.045165 
   13000    409.69405   -452.15169    0.5740822   -43.612226    17.101308 
   14000    437.74216   -457.40941   0.53857594   -20.975691    47.162541 
   15000    433.49785   -430.70909   0.62296104    1.5826145    33.912528 
   16000    414.59894   -452.67131    0.6954131   -39.126327    29.878924 
   17000    442.91436   -463.18485   0.51466633   -21.624655    17.514383 
   18000     449.4691   -436.34543    0.5659714    11.793153    31.319055 
   19000    446.61366   -465.95004   0.53731638   -20.683511     19.24921 
   20000    438.99128   -436.20502   0.56819812    1.5021762    34.361216 
   21000    463.91261   -419.34879   0.57465414    43.181037    48.890379 
   22000    439.51799   -451.15135   0.70312263   -12.784742    6.0529779 
   23000    462.89826   -484.48577   0.61678908   -22.923876    21.132964 
   24000    444.89763   -468.22842   0.56857827   -24.639423    39.079619 
   25000     442.6283    -495.9858    0.5980737   -54.627061    6.3111334 
   26000    459.34683   -441.76188   0.53331129    16.180086    30.536536 
   27000    463.14906   -452.25956   0.61334274    9.5486316    30.798627 
   28000    476.10146   -449.57819   0.60936573    25.123764    42.427727 
   29000    430.07018   -420.38271   0.61195736    8.4847877    28.019236 
   30000      465.834   -439.21597   0.61434045    25.266827    21.710795 
   31000    434.73407    -466.0043   0.50245436   -32.602088    44.755887 
   32000    431.95612   -410.91859   0.54335049    19.758285    50.450858 
   33000    427.32245   -466.33477   0.45885002   -40.356518    27.141016 
   34000     445.8397   -444.86019    0.6086475  -0.29302112    34.298676 
   35000    423.62277    -436.0173   0.54827885   -13.633692    24.072341 
   36000    444.69129   -428.14601   0.63098481    15.299927    23.855582 
   37000    471.47466   -474.44605   0.72498459   -4.2357452    19.168757 
   38000    446.51885   -476.43125    0.6204272   -31.176025    30.304575 
   39000    459.18145   -505.40951   0.45364142   -47.711895    35.604577 
   40000    433.83584   -477.07279   0.59494861    -44.47253    33.737607 
   41000    485.39011   -480.79037   0.47302992    3.0247092     9.482106 
   42000    425.30457   -422.41371   0.55698765    1.6533066    18.817542 
   43000    439.58888    -433.1232   0.73340679    5.3442813    27.336677 
   44000    411.19119    -455.3098   0.41980129   -45.433794    26.133231 
   45000    423.68591   -440.08592   0.61335486   -17.574357    28.417475 
   46000    441.06142   -441.20613   0.64000886   -1.3657247    26.444687 
   47000    469.28475    -456.7069   0.63941169    11.237157    31.287041 
   48000    443.00463   -421.13506   0.51679125     20.51714    21.325269 
   49000     425.0911   -420.14286   0.51442275    3.6690273    26.162162 
   50000    429.08886   -493.93337   0.42895003   -66.226057    25.751189 
   51000    446.34453    -425.0492   0.51013008    19.922154    29.090163 
   52000    429.60032   -460.44794   0.52024807   -32.140027    63.256412 
   53000    426.76484   -472.28084   0.63511813   -46.681586    25.741982 
   54000    447.96497   -448.17677   0.65960523   -1.4423455    30.880951 
   55000    485.56686   -462.42527   0.55118839    21.643972    31.705785 
   56000    436.86844   -428.86449   0.62278042    6.7834034    24.861402 
   57000    427.49523     -466.659    0.4742778   -40.493273    19.941772 
   58000    406.61577   -452.47063   0.46708592    -47.10345    23.887824 
   59000    424.26734   -432.71479   0.37578136    -9.861825    47.207486 
   60000    471.41888   -472.39805   0.67299641   -2.2952846    43.073258 
   61000    411.11274   -400.46138   0.49649076    9.4131898    25.283179 
   62000    442.06018   -458.60317    0.6195355    -17.78869    23.554624 
   63000    433.10713   -432.60215   0.41715164  -0.90532305    49.929677 
   64000    433.21732   -445.97755    0.5483155   -14.039834    37.204758 
   65000      454.542   -463.02154   0.60597998    -9.791459    45.011935 
   66000    440.91858    -430.0201   0.50382538    9.5418929    33.281362 
   67000    412.06447   -442.16444   0.57738349   -31.261249     24.99243 
   68000     440.7445   -477.08653   0.53606061   -37.665656    49.647959 
   69000    432.66288   -431.74712   0.60260921  -0.30721091    42.230217 
   70000    436.24748   -483.36441   0.62730807   -48.330326    12.946271 
   71000    426.70179   -416.22769   0.48350666    9.1571787    20.286168 
   72000    421.30899   -449.24019   0.61585773   -29.093022    54.272012 
   73000    446.46899    -445.9551   0.48860602  -0.88134002    29.002613 
   74000    458.16314   -497.77315   0.57482164   -40.968366    17.108544 
   75000    454.53322   -465.98763   0.50106802   -12.871204    22.171173 
   76000    453.62219   -418.35647   0.55784886    33.909551    41.940137 
   77000    418.30412   -409.99978   0.65435415    7.1936964    60.154389 
   78000     421.7957   -456.41341   0.63559896   -35.761836    26.026215 
   79000    442.26877   -460.57591   0.63607485   -19.537178    25.510273 
   80000    420.88058   -452.28849   0.64045595   -32.543318    22.941703 
   81000    423.80699   -441.65174   0.55085586   -19.082117    30.773416 
   82000    408.61243   -433.62794   0.52418085   -26.215433    23.961444 
   83000    516.25462   -473.76202   0.55819358    40.872506    24.671686 
   84000    444.80814   -410.97495   0.66316275    32.619533    34.165763 
   85000    467.05762   -446.83436   0.51432107     18.76687     21.22776 
   86000     445.3024   -420.58758   0.40408448    23.239987    38.429384 
   87000    436.23902   -454.44906   0.55989286    -19.49082    28.012147 
   88000    452.39209    -452.6084   0.63082774   -1.4943166    22.298779 
   89000    425.83047   -422.62724   0.63609749    2.0425799    36.803795 
   90000    458.86881   -465.46055   0.51151471   -8.0163848    15.392204 
   91000    433.83163   -451.00542   0.56404083   -18.440259    7.5480279 
   92000    449.43368   -438.11942   0.60583869    10.023761    36.568936 
   93000     459.2678   -464.27637   0.57138388   -6.3750244    35.932832 
   94000    454.94346   -447.07815   0.53808873    6.4838125    32.820636 
   95000     457.3305   -440.65073    0.4989612    15.249073    31.162339 
   96000    428.87566   -465.06296   0.36835422   -37.628547    21.925929 
   97000    457.77149   -497.02534   0.58705469   -40.598315    27.133184 
   98000    417.10018   -416.31259   0.64827901  -0.32405142    33.784886 
   99000    415.62914    -422.3961   0.53814878   -7.9825228    14.523691 
  100000    423.23688   -466.21015   0.59758054   -44.161496    27.475247 
Loop time of 4.76779 on 6 procs for 100000 steps with 237 atoms

Performance: 1812161.365 tau/day, 20974.090 timesteps/s
99.2% CPU use with 6 MPI tasks x no OpenMP threads

MPI task timing breakdown:
Section |  min time  |  avg time  |  max time  |%varavg| %total
---------------------------------------------------------------
Pair    | 2.0872     | 2.1017     | 2.111      |   0.6 | 44.08
Bond    | 0.006428   | 0.047874   | 0.16521    |  25.7 |  1.00
Neigh   | 0.49013    | 0.50985    | 0.52332    |   1.6 | 10.69
Comm    | 0.70741    | 0.74919    | 0.79727    |   3.0 | 15.71
Output  | 0.004431   | 0.004801   | 0.005844   |   0.7 |  0.10
Modify  | 0.46138    | 0.47419    | 0.50533    |   2.2 |  9.95
Other   |            | 0.8802     |            |       | 18.46

Nlocal:    39.5 ave 52 max 30 min
Histogram: 2 0 1 1 0 0 0 0 0 2
Nghost:    37.8333 ave 47 max 31 min
Histogram: 1 1 0 2 0 0 1 0 0 1
Neighs:    0 ave 0 max 0 min
Histogram: 6 0 0 0 0 0 0 0 0 0

Total # of neighbors = 0
Ave neighs/atom = 0
Ave special neighs/atom = 0.708861
Neighbor list builds = 24556
Dangerous builds = 0
WARNING: One or more atoms are time integrated more than once (../modify.cpp:279)
Neighbor list info ...
  update every 1 steps, delay 0 steps, check yes
  max neighbors/atom: 2000, page size: 100000
  master list distance cutoff = 5.3
  ghost atom cutoff = 5.3
  binsize = 2.65, bins = 27 27 1
  3 neighbor lists, perpetual/occasional/extra = 3 0 0
  (1) pair lj/cut, perpetual, skip from (3)
      attributes: half, newton off
      pair build: skip
      stencil: none
      bin: none
  (2) pair gayberne, perpetual, skip from (3)
      attributes: half, newton off
      pair build: skip
      stencil: none
      bin: none
  (3) neighbor class addition, perpetual
      attributes: half, newton off
      pair build: half/bin/newtoff
      stencil: half/bin/2d/newtoff
      bin: standard
Per MPI rank memory allocation (min/avg/max) = 10.78 | 10.95 | 11.17 Mbytes
Step Temp E_pair E_mol TotEng Press 
       0    423.23688   -466.21015   0.59758054   -44.161496    27.475247 
    1000    438.66512   -435.75034   0.55700916    1.6208861    32.357559 
    2000    436.25967   -486.66887   0.59918035   -51.650778    23.067399 
    3000    436.98594   -429.37071   0.66325505    6.4346628    16.855997 
    4000    432.64507   -449.49285   0.59054397   -18.082748    25.643391 
    5000    437.99772    -442.3471    0.4385917   -5.7588849    33.721272 
    6000    477.60606   -442.83803   0.55131742    33.304134     26.21441 
    7000    448.09178   -472.63916   0.54461123   -25.893449    34.729299 
    8000    436.94116    -438.0507   0.61121555   -2.3419576    23.327898 
    9000      413.673   -420.11608   0.42815412   -7.7603873     35.97761 
   10000    456.07498   -422.28121    0.6896578    32.559058    20.875886 
   11000    438.35565   -440.50858   0.69050226   -3.3120301    38.452888 
   12000    429.45586   -439.70512   0.54434412   -11.516963    40.782892 
   13000    424.61722   -464.28919   0.59823239   -40.865368    20.362085 
   14000    422.88922   -474.69162   0.59672286   -52.990015    27.207362 
   15000     438.4949   -436.76024   0.47787276   0.36234302    38.107818 
   16000    441.79193   -495.07005   0.59917817   -54.543039    13.993865 
   17000    431.26964   -474.76651   0.58694502   -44.729624    18.769962 
   18000    457.98809   -454.27346    0.5399097    2.3221042    25.423846 
   19000    473.66276   -477.48797   0.54079616   -5.2829893    36.796152 
   20000    433.37887   -431.51154   0.57822176   0.61694673    37.502589 
   21000    438.07594   -468.39725   0.58759028   -31.582136    19.702538 
   22000    483.10621    -428.2321   0.55640453    53.392091    28.941963 
   23000    434.25025   -442.85139   0.51298612   -9.9204269    34.724174 
   24000     420.3944   -456.99162   0.46184972   -37.909182    14.594778 
   25000    418.76837   -420.98506   0.49127686   -3.4923704    35.868347 
   26000     443.4427   -445.56985   0.61851604   -3.3796973    21.844608 
   27000    435.69001   -477.59571   0.67479306   -43.069267    20.190457 
   28000    439.57814   -463.14086   0.62931816   -24.788157     28.20027 
   29000    430.66975   -442.64037   0.64268765   -13.145101      26.2655 
   30000    433.61964   -448.36668   0.65212771   -15.924536    24.178718 
   31000    444.69617   -467.86123   0.61087265   -24.430545     34.29899 
   32000    390.40256   -427.69917   0.44028881   -38.503594    25.471065 
   33000     442.2573   -436.77144    0.6066349     4.226436    34.279335 
   34000    433.44875   -478.13833    0.5536184   -45.964858     46.38476 
   35000    450.44482   -439.28604   0.54368862     9.801856    36.258257 
   36000    439.69209   -421.80836   0.42880602    16.457298    21.747892 
   37000    421.66162   -451.74058   0.43717512    -31.42095    21.295024 
   38000    475.24746   -436.87626   0.60392651    36.969864    23.264879 
   39000    445.75611   -468.90728   0.56899359   -24.463003    34.856002 
   40000    441.30029   -420.01364   0.54886338    19.973482    46.804568 
   41000    417.77286   -475.99764   0.49282119   -59.494709    10.321692 
   42000    454.47204    -400.2804   0.45432214    52.728354    54.112299 
   43000    478.47149   -448.36487   0.64498404    28.732739    51.264413 
   44000    402.42279   -454.98512   0.60701952   -53.653298    31.800134 
   45000     412.1592   -470.00286   0.51255913   -59.070175    16.695203 
   46000     460.1949   -412.94719   0.59716254    45.903119    32.666054 
   47000    461.08854    -518.5979   0.63861061   -58.816271    23.370579 
   48000    432.37203   -455.60621   0.70062045   -24.357917    25.845645 
   49000    407.29229    -419.7534   0.54817158   -13.631476    45.230663 
   50000    469.36179   -439.37915   0.65241602    28.654624    35.827429 
   51000    448.78792   -422.66831   0.52384361    24.749827    20.381244 
   52000    457.20134   -462.73202   0.56236073   -6.8974355    45.328195 
   53000    478.70866   -459.26177   0.54641308    17.973434    27.890269 
   54000    429.32744   -448.15217   0.69177258   -19.944471    39.737399 
   55000    418.56758   -476.67529   0.51141784   -59.362397    32.121937 
   56000    473.50112   -486.54364   0.44007136   -14.600343     36.98606 
   57000    475.62495   -416.76842   0.51787397    57.367546    30.449951 
   58000    449.60683    -445.7788   0.61019176    2.5411463      25.1792 
   59000    453.34718   -447.85357   0.62356666    4.2043177    23.612109 
   60000    424.78951   -438.68358   0.52096125   -15.165469    37.748262 
   61000     426.9967   -456.75753   0.54111231   -31.021389    26.862541 
   62000    443.88039   -450.57919   0.58717747   -7.9845343    22.951017 
   63000    464.01133   -467.82172    0.6347356   -5.1335155    18.146186 
   64000    431.49878   -457.36647   0.57851671   -27.109841    34.986851 
   65000    399.02319    -428.1098   0.41800642   -30.352242    17.807263 
   66000    444.53608   -449.89378   0.61404035   -6.6193356    17.960785 
   67000    473.52978   -495.06368   0.64123196   -22.890682    27.310755 
   68000    444.27117   -483.12731   0.56838064    -40.16232    34.041258 
   69000    415.78594   -390.91995    0.5574757     23.66909    29.372015 
   70000    445.64291    -469.0178   0.46948131   -24.785752     25.65348 
   71000    452.58725   -432.31936   0.56015556      18.9184    35.357868 
   72000    408.75242   -426.56818   0.60523887    -18.93521    21.564213 
   73000    435.48796   -494.34166   0.57147309   -60.119725    27.744852 
   74000     449.6074   -447.92321   0.56959594   0.35671144      43.5401 
   75000    438.99863   -458.01838   0.57111265   -20.300951    17.718455 
   76000     453.1119   -465.96517   0.48286552    -14.28226    31.557728 
   77000    449.47344   -439.18986   0.64726766    9.0343395    19.399122 
   78000    445.50194   -481.05972   0.37995206   -37.057583    27.220841 
   79000    459.72737   -450.81698   0.60052325    7.5711356    44.089889 
   80000    416.08631   -450.07978    0.6076065   -35.141508    43.189029 
   81000    449.48403   -451.26625   0.54068817   -3.1380823    54.311904 
   82000    450.61464   -483.48699   0.46711004   -34.306562    47.535925 
   83000    461.35576   -439.16268   0.53201507    20.778449    25.656885 
   84000    442.37416   -401.73995   0.48249067    39.250141    43.993718 
   85000    431.16461   -439.54812   0.60896041   -9.5938023    31.701463 
   86000    435.15996   -414.43333   0.63704957    19.527564    36.629722 
   87000    459.65954   -442.06913   0.64670374    16.297613    53.904529 
   88000    463.73511   -454.37728   0.59739462     7.998535    21.403068 
   89000    427.53171   -429.47507   0.60541291   -3.1418741    26.172564 
   90000    455.85082   -460.52626   0.63434551    -5.964514    31.761269 
   91000    412.03227   -481.07891   0.62597365   -70.159197    30.548464 
   92000    421.89686   -448.74684   0.56629307   -28.063848    31.637437 
   93000    435.34314   -417.29522    0.4532666    16.664304    35.959703 
   94000     445.4261   -467.47651   0.53340321   -23.396436    44.054225 
   95000     427.1068   -472.38392   0.47225462   -46.607001    35.735441 
   96000    481.94136   -460.53709   0.62227382    19.993038    3.3353733 
   97000    456.42342   -473.06789   0.74148834   -17.828814    42.017754 
   98000    429.43188   -434.42245    0.5008052   -6.3017111    28.120056 
   99000    436.44194   -460.85123   0.56204639   -25.688765    34.657651 
  100000    438.29347   -451.16625    0.5954688   -14.126647    35.160101 
  101000    401.35925   -453.10824   0.51696554   -52.925519    18.246383 
  102000    457.71457   -443.70781   0.62735684    12.702825    31.528261 
  103000    456.35863    -460.7201   0.53128378   -5.7557499    41.156503 
  104000    461.67353    -398.5212    0.5998208     61.80416    22.081404 
  105000    447.24214    -452.4036   0.55918252   -6.4893771    30.687712 
  106000    440.45661   -442.99847   0.61735229   -3.7829757    24.913981 
  107000    426.97795   -462.38195   0.59534668   -36.610256    14.182086 
  108000    439.73186   -487.20106   0.71343569   -48.611167     22.63585 
  109000    445.33628   -433.82098   0.57943138    10.215675    38.378879 
  110000     424.3119   -462.69069   0.52157885   -39.647552    22.685899 
  111000     426.3373   -463.42197   0.55595573   -38.327603    11.620929 
  112000    462.11635   -497.50156   0.57264808   -36.762427    17.309547 
  113000    403.25917     -471.605   0.71318258   -69.334159    46.071583 
  114000    447.30621   -531.16027    0.6543714   -85.087062     26.20744 
  115000    447.41938   -448.64779   0.52614078    -2.590106    25.938055 
  116000    420.80891   -474.28171   0.60538785   -54.642972    21.427945 
  117000    429.28268   -423.31304    0.4459808    4.6042984    33.274847 
  118000    428.26962    -456.5828   0.59537012   -29.524853    26.278223 
  119000    485.92095   -474.95966   0.52747604    9.4384613    27.269917 
  120000    469.67832    -456.2632   0.58859675    12.021954    24.001507 
  121000    492.95051   -432.65498   0.58889129    58.804463    23.828389 
  122000    411.06595   -442.74703   0.62570561   -32.789832    30.865776 
  123000    428.62401   -441.56524   0.47653401   -14.273233    38.188485 
  124000    437.74252   -475.65168   0.53846785   -39.217707     33.89081 
  125000    432.80532   -469.44653   0.56944365   -37.897951    34.034053 
  126000     416.3667   -391.20642    0.5206378    23.924097    29.884778 
  127000    429.17157   -440.18877   0.48006907   -12.347984    28.390064 
  128000    422.55071    -435.0222   0.53357095   -13.720826    44.004845 
  129000    427.16387   -435.76672    0.6172352   -9.7879982    26.143685 
  130000    432.99482   -442.17298   0.47417232   -10.530966    12.601737 
  131000    445.68722   -440.06767      0.53337    4.2723789    30.522607 
  132000    436.48705   -427.93718   0.59248412    7.3006354    20.281393 
  133000    461.18514   -453.09507   0.49045655     6.634595    25.411025 
  134000    424.10941   -383.65716   0.54331352    39.206074    37.954119 
  135000    451.81393   -444.64605   0.53236158    5.7938508    48.788152 
  136000    454.23232   -449.28314   0.62598775    3.6585777    24.976935 
  137000    456.01799   -448.49377   0.65684001    6.2569239    29.067184 
  138000    432.79583   -441.61691   0.58804617   -10.059177    42.556914 
  139000    449.42365   -416.88504   0.66509212    31.307404    39.921063 
  140000    414.07503   -437.95568   0.43905588   -25.188742    38.904345 
  141000    427.99254   -435.33685   0.59631759   -8.5538731     37.23773 
  142000    456.32355   -415.98051   0.57001843    38.987639    29.245751 
  143000    444.36402   -459.03525   0.73745788   -15.808729      11.6606 
  144000    454.72325   -437.60823   0.62424148    15.820599    19.398279 
  145000     441.5049   -499.55617   0.74432915   -59.169833    8.7637054 
  146000    475.77171   -445.66274   0.72902943    28.830526    32.291596 
  147000    440.83633   -451.16102   0.59275189   -11.592015    11.539063 
  148000    430.35713    -481.5074   0.55269281   -52.413428    30.044545 
  149000    403.93109   -461.55778   0.48735217   -58.843692     25.48518 
  150000    425.62164   -460.54532     0.507773   -36.211784    32.922146 
  151000    423.36993   -462.44208   0.57333957   -40.285181    30.294494 
  152000     453.3797   -471.03978   0.55115201   -19.021916    19.017712 
  153000    469.13077   -466.57991   0.51461331    1.0860133    41.093584 
  154000    462.55212   -453.98683   0.54444076    7.1580336    18.463164 
  155000    463.41528    -441.0722    0.4141381    20.801875    30.541396 
  156000    402.08612   -405.59561   0.46438435   -4.7416676    39.339529 
  157000    408.95918   -449.12772   0.55587824   -41.338235    12.705451 
  158000    403.94801    -450.1055   0.57583021   -47.286084    29.044641 
  159000    453.64539   -461.36467   0.51128096   -9.1221156    39.395841 
  160000    428.21462   -480.07496   0.75328346   -52.913862     32.58749 
  161000    408.91609   -459.99339   0.61448015   -52.188208    21.979646 
  162000    426.28978    -452.7203   0.57855908   -27.650654    32.899756 
  163000    451.09146   -423.04443   0.59546027    26.739151    36.632657 
  164000    386.07155    -438.1023   0.62124116   -53.038507    38.572334 
  165000    424.07447   -434.88168   0.64623432   -11.950326    48.305645 
  166000    478.36149   -484.72156    0.5583127   -7.8201635    28.067524 
  167000    419.12962   -473.87331   0.59392025   -55.918251    17.714873 
  168000    431.94553   -434.68501   0.44906711   -4.1129683    46.992243 
  169000    464.34452   -410.48651   0.60109015    52.499847    40.228951 
  170000    446.03165   -477.09694     0.524727   -32.422557    18.092746 
  171000     398.0971   -457.88956   0.46406902   -61.008123    27.946265 
  172000    425.91777   -452.38685   0.67658529   -27.589619    17.977438 
  173000    443.19552   -475.19517   0.53327762   -33.336397    16.543952 
  174000    436.17177   -385.33366   0.66276391    49.660478    38.465214 
  175000     452.4744   -443.37952   0.55748154    7.7431885    39.370161 
  176000    442.95185   -477.77677   0.56635763    -36.12756     24.74495 
  177000    435.13971   -460.64041   0.60194122   -26.734797    18.021578 
  178000    442.51852   -462.80578   0.56779552    -21.58663    27.134841 
  179000    451.73672   -430.71302   0.60547996    19.723121    39.400211 
  180000    409.12171   -443.33566   0.52742916   -35.412768    30.871547 
  181000    460.84442   -461.38565   0.52065141   -1.9650641    46.151801 
  182000    462.41055   -423.05823   0.45068518    37.851903    57.049265 
  183000    431.47777   -431.37216   0.54273023   -1.1722494    18.349055 
  184000    418.07948   -460.21558   0.49129956    -43.40885    8.3538636 
  185000    475.10028   -422.77817   0.48867347    50.806133    31.581345 
  186000      440.401   -451.23504   0.53550277   -12.156774    6.8183317 
  187000    431.31691   -392.52658   0.42932132     37.39975    46.353643 
  188000    419.53003   -448.30373   0.55915327   -29.984716    28.774228 
  189000    446.63102    -385.4891   0.53479153    59.792185    49.557671 
  190000    423.27416   -452.72768   0.72091031   -30.518577    13.453931 
  191000    452.32766    -469.9697   0.56365904   -18.986939    29.831185 
  192000    444.94308   -488.78148     0.557147   -45.158656    10.608731 
  193000     461.1241   -467.32104   0.57106931   -7.5715363    17.574362 
  194000    432.82133   -453.23398   0.68888416   -21.550017    33.146463 
  195000    450.07019   -442.75898   0.66025879    6.0724442     28.20188 
  196000    428.78504   -422.68745    0.5840782    4.8724455    50.614344 
  197000    439.43968    -456.1906   0.45232398   -18.152771    24.714347 
  198000    432.85795   -491.89349   0.49462642   -60.367326     27.25215 
  199000    408.33058   -499.94973   0.42286775   -92.919194    20.307227 
  200000    452.37106   -434.08476   0.54213436    16.919704    68.865823 
  201000    423.89955   -468.51474   0.69497686    -45.70882    21.577009 
  202000    452.99463   -454.85445   0.61241443   -3.1587772    24.991466 
  203000    448.14828   -435.52033   0.64984628    11.386869    29.240834 
  204000    435.77009   -442.73318   0.60378514   -8.1979951    49.972967 
  205000    413.45637   -462.16263   0.54854381   -49.902264    39.054023 
  206000    437.87481   -457.10099   0.76195592   -20.311794    33.859189 
  207000    461.29182    -455.7043   0.50023951    4.1413797    26.466236 
  208000    469.63382   -460.23222   0.51360517    7.9336257    30.888585 
  209000    441.76372   -473.50284   0.62073784   -32.982365    16.872929 
  210000    441.08574   -444.36874   0.50042904   -4.6436983    35.373065 
  211000     428.1152   -424.73006   0.55134042    2.1300863    29.870032 
  212000    462.88135   -484.19949   0.53861196   -22.732615    18.379944 
  213000    401.02011    -440.6859   0.77975873   -40.578102    24.703492 
  214000    431.55392   -471.33006   0.58259623   -41.014441    29.774201 
  215000    449.00786   -426.23913   0.51312373    21.387308    30.108477 
  216000    416.49095   -410.61184   0.45492039    4.5766827      21.9664 
  217000    438.40599   -413.13261   0.62579085    24.049349     38.61176 
  218000    442.15135   -449.06322    0.5979667   -8.1795242    33.824252 
  219000    439.16011   -417.97986   0.63701566    19.964264    32.663879 
  220000    444.79697   -465.24106   0.57980019   -21.741062    20.416137 
  221000    441.26795   -432.61535   0.63823545    7.4289434    44.181319 
  222000    468.39579   -476.75674   0.51503113   -9.8222706    39.987417 
  223000     475.2133   -477.11369    0.6550502   -3.2504597    50.872395 
  224000    411.05471   -462.16322   0.45547073   -52.387446    15.893157 
  225000    419.15671   -404.01557   0.47056551    13.843118    26.679112 
  226000    453.41228   -403.17976   0.65370168    48.973099    50.823475 
  227000    445.88563   -424.98269   0.57469962    19.596266     58.45838 
  228000    418.13746   -464.69089   0.61018857   -47.707537    11.839269 
  229000    411.21025   -476.13123   0.48246492   -66.173577     28.50324 
  230000     460.5895   -435.85022   0.56706279     23.36293    22.439543 
  231000    425.86775   -474.42962   0.63374989   -49.725033     23.19313 
  232000    470.47631   -460.86926   0.67941072    8.3013263    32.394881 
  233000    436.07893    -502.4413   0.53188078   -67.670476    23.105161 
  234000    435.60581   -414.40752   0.53989496    19.900186    45.019931 
  235000    410.28952    -471.6581   0.55071357   -62.549049    35.812649 
  236000    421.00929   -472.69003   0.64899893   -52.808152    19.989562 
  237000    433.86361   -449.11829    0.5967852   -16.488548     10.81673 
  238000     475.2804    -445.1475   0.60853262    28.736036    26.652899 
  239000    456.50033   -457.59065   0.64427848   -2.3722086    14.535446 
  240000     463.8403   -484.86694   0.58417591   -22.399602    15.304001 
  241000    459.24634   -474.54832   0.52919959   -16.710532    13.150465 
  242000    438.73599   -454.84757   0.54406152   -17.418718    15.792134 
  243000    461.29135   -408.42168   0.41467536    51.337968    13.595385 
  244000     421.5059   -457.71495   0.51726873   -37.470286    28.240176 
  245000    435.03683    -461.9479   0.46960234   -28.277073    22.468009 
  246000    428.70973   -448.63508   0.65333852   -21.080913    14.800006 
  247000    463.70842   -443.84682   0.48401812    18.389047    35.807665 
  248000    454.00604    -425.3442   0.40961352    27.155819    25.724003 
  249000    452.61497   -464.26539   0.60050029   -12.959691    26.874993 
  250000    452.87701   -435.20355   0.58676312    16.349352    51.569792 
  251000    472.27471   -503.09971    0.6300221     -32.1877    18.679929 
  252000    443.26458   -411.37459   0.57616147    30.595839    23.319062 
  253000    440.38062   -451.94153   0.49588496   -12.923164     29.88742 
  254000    445.36873    -432.6255   0.53333072    11.397369    48.808839 
  255000    426.20713   -493.29686   0.60532321   -68.282753    33.087375 
  256000     429.7728    -426.8989   0.45455529    1.5150707    41.490746 
  257000    453.49657   -478.13988   0.59280695   -25.963989      18.7861 
  258000    438.07976   -479.89337   0.60586537   -43.056186    26.969202 
  259000    448.75123   -495.65918   0.64530582   -48.156101      26.6468 
  260000     442.5684   -471.07627   0.55951745   -29.815731    16.469255 
  261000    430.93462   -444.50493   0.55214087   -14.836459    23.169937 
  262000    473.32445   -475.51855   0.48253723   -3.7087099    29.810799 
  263000    423.15692   -402.74796   0.62306064    19.246548    35.362809 
  264000    480.22144   -495.27321   0.48310372   -16.594916    35.813239 
  265000    442.50768   -452.77641   0.50689929   -11.628951    29.440105 
  266000    413.81375   -460.58402    0.4746605   -48.041652    48.734247 
  267000    466.47508   -468.44094   0.53432301   -3.3997847     30.98066 
  268000    449.56287   -458.99609   0.53484448   -10.795264    28.883942 
  269000    445.71905   -466.76794   0.64889775   -22.280665    27.042142 
  270000    423.28392   -452.85671   0.57789626   -30.780898    32.286799 
  271000    469.50102   -465.52627   0.65100606    2.6447411    40.230622 
  272000    430.48083   -460.38749   0.60408292   -31.118958    15.335799 
  273000    440.48641   -492.12174   0.60578969   -52.888134    38.658702 
  274000    410.57245   -410.56872   0.56890804   -1.1597372    34.231239 
  275000    472.90214   -480.56441   0.64492263   -9.0127224    23.235671 
  276000    427.90975   -468.73137   0.64474335   -41.982403    30.906963 
  277000     430.5598   -489.58215   0.45168438   -60.387371    30.752934 
  278000    459.56972   -460.80605   0.56361267   -2.6118308    43.862929 
  279000     446.1737   -440.92608   0.54883255    3.9138619    35.522311 
  280000    449.84736   -430.85792   0.55003847     17.64138    44.269567 
  281000    452.82343   -450.44916   0.51519084   0.97881303    38.984532 
  282000    459.89249   -417.40695   0.56773466    41.112797    41.331501 
  283000    450.91257   -448.78525    0.5579967   0.78272935    48.419615 
  284000    427.11667   -385.67642   0.38183533    40.019904    34.079256 
  285000    437.77902   -460.40556   0.49166821    -23.98204    28.526147 
  286000    463.29637   -467.00875   0.62678306   -5.0404353     8.975876 
  287000    476.94691   -482.51551   0.56248816    -7.018554    24.293865 
  288000    463.62042   -394.88656   0.64289368    67.420545    29.498701 
  289000    450.07565   -467.05928   0.55270348   -18.329973    27.519177 
  290000    450.35635   -435.03271   0.57523388    13.998637    55.683398 
  291000    480.92583   -521.12344   0.54370851   -41.683127    31.289823 
  292000    449.65233   -469.87476   0.67243999   -21.447261    28.882161 
  293000    456.11344    -480.6782   0.66794809   -25.821345    16.503857 
  294000    444.85563   -423.89558   0.58898264    19.672012    31.121855 
  295000    442.49624   -446.52036   0.52920364   -5.3619955    5.4003269 
  296000    428.66502    -419.7323   0.36214308    7.4861562    38.203688 
  297000    449.02432   -470.70695   0.65760372    -22.91965    16.084798 
  298000    446.93291   -459.02709   0.67650415   -13.303461    35.857968 
  299000    451.73267   -423.67925    0.5095941     26.65697    60.722471 
  300000    434.42172   -451.92556   0.47544455   -18.861397    5.2388204 
  301000    427.99119   -397.31442   0.62425399    29.495151    34.355266 
  302000    448.10366   -470.60353   0.65012555   -23.740481     38.39812 
  303000    433.22254   -473.94803   0.53643162   -42.017001    13.006222 
  304000    429.33891   -449.87244   0.58460336   -21.760493    35.014031 
  305000     449.0038   -457.72674   0.63097273   -9.9864974    26.135065 
  306000    430.71476   -424.58356   0.75695098    5.0707878    28.735688 
  307000     452.5927   -480.08908   0.54132393   -28.864727    13.450845 
  308000    450.21409   -462.46494   0.42928092   -13.721208    36.387005 
  309000    448.89124   -418.95658    0.5522283     28.59283    31.925841 
  310000    455.12216    -452.9954    0.6449384   0.85135353    30.309067 
  311000    443.98787   -461.83685   0.56364241   -19.158699    4.0500999 
  312000    412.63881   -404.97794   0.46798941    6.3877627    28.311162 
  313000    422.45418   -460.94608   0.47143394    -39.80297    28.962561 
  314000     417.4819   -439.36365   0.50528869   -23.137988    23.790799 
  315000    420.21426   -417.68063   0.56682547    1.3273969    28.905019 
  316000    420.13798   -412.96298   0.58365867    5.9859293    18.119307 
  317000    447.25911   -428.67547   0.61139076    17.307867    35.739311 
  318000    448.68539   -426.70501   0.56784955    20.655046    40.520288 
  319000     448.2748   -498.79844   0.62448188   -51.790609    44.450298 
  320000    433.63942   -428.61586   0.56941391    3.7632652    12.396967 
  321000     425.0484   -440.67094   0.43716982   -16.978824    25.061157 
  322000    426.88559   -464.38636   0.57124398   -38.730731    17.713212 
  323000    449.18263   -418.69175   0.65262471    29.248225    40.280234 
  324000    416.11338   -438.35445   0.47447103   -23.522348    29.271701 
  325000    464.94935   -459.64322   0.63454147    3.9788628    46.301305 
  326000     452.5649   -429.42046   0.65723274     21.89211    37.204255 
  327000    437.11018   -468.47105   0.59393846   -32.611278    25.574967 
  328000     466.1426   -451.75481    0.6502091    13.071152    35.744386 
  329000    418.78626   -488.17027   0.65462789   -70.496411    37.697919 
  330000    452.53564   -481.56717   0.62058115   -30.320385    21.216756 
  331000    427.45252    -448.9798   0.61587254   -22.715001    43.865086 
  332000    433.50735   -443.13255   0.59890635   -10.855435    28.974873 
  333000    457.64742   -457.95848   0.61423993   -1.6278184    40.888449 
  334000    428.35972    -474.8604   0.58520106   -47.722907     25.71801 
  335000    411.33973   -436.06927   0.53735029   -25.927801    37.312057 
  336000    457.39739   -482.65244   0.53452964    -26.65047    34.862538 
  337000    439.42792   -457.49258   0.57871133   -19.340075    7.1665378 
  338000    422.10997   -447.44312   0.53060085   -26.583604    38.912857 
  339000    473.55065   -465.19106   0.53606448    6.8975441    19.567339 
  340000    415.04091   -428.48824   0.54217064   -14.656386    38.805769 
  341000    449.64177   -437.12033   0.63681003    11.261023    15.516369 
  342000    439.41254   -505.77474   0.60945879   -67.606803    21.104065 
  343000     477.9037   -479.84075   0.55771756    -3.395795    40.230281 
  344000    435.52748   -431.03336    0.5247368    3.1811907    32.422571 
  345000     444.4898   -459.36678   0.53414596   -16.218319    29.495554 
  346000    431.67269    -472.4684   0.40229648   -42.214819    17.350436 
  347000    432.36963   -498.48893   0.43779278   -67.505849    18.785353 
  348000    473.21944    -431.4894   0.43141446    40.164751     35.79803 
  349000    450.97895   -446.67286   0.53247256    2.9356961     47.63086 
  350000    456.93313   -457.73062   0.51320994   -2.2122677    53.129357 
  351000    430.63564   -472.81151   0.47889345   -43.513997    20.971642 
  352000     421.8735   -426.72835   0.61917936   -6.0157251    32.980089 
  353000     478.4395   -447.04172   0.49374037    29.872783    40.418286 
  354000    466.15399   -438.13533   0.65456139    26.706325    27.182941 
  355000    453.84038   -433.42567   0.60720044    19.106966    36.125054 
  356000    453.98054   -464.25635   0.54942044   -11.641915    24.164159 
  357000    434.80134   -453.55153   0.61794651   -19.966851    49.400124 
  358000     419.5944   -434.79827   0.58870948   -16.385601    45.684955 
  359000        378.1   -434.78744    0.6276843   -57.655114    33.260378 
  360000    440.52598   -492.92481   0.63016125    -53.62743    17.263604 
  361000    502.19456   -448.06852   0.55747316    52.564549     35.98833 
  362000    412.13694   -458.29303    0.6469835   -47.248076    29.154166 
  363000    445.46409   -435.59341   0.65744706    8.6485332     30.05871 
  364000    428.47889   -442.15417   0.39926736   -15.083942    47.917324 
  365000    465.59778   -473.23118   0.59336816   -9.0045866    25.053384 
  366000    443.78104   -464.64712   0.55992203   -22.178648    24.668671 
  367000    430.77532   -410.95332   0.50447598    18.508854    42.493831 
  368000    447.47579   -417.61489   0.65578535    28.628601    37.025085 
  369000    432.15782   -469.90181   0.47896125   -39.088482    17.480389 
  370000    451.19905   -428.48895    0.5836913    21.389999    39.973837 
  371000    494.45779   -455.66491     0.622094    37.328651    31.255774 
  372000    438.34816   -439.29499   0.61765317   -2.1787469    26.822677 
  373000    458.60381   -436.76517   0.61681061    20.520413    54.296574 
  374000    484.40097   -459.84817   0.53995274    23.048864    25.500934 
  375000    452.67847   -475.01779   0.62080996   -23.628548    15.124687 
  376000    442.85458   -462.85833   0.47136604   -21.400969    21.880018 
  377000    401.22705   -456.06736   0.53341224   -55.999836    49.051673 
  378000    436.05976   -429.84026   0.70062372    5.0802133    33.833458 
  379000    451.88278   -466.60185   0.46110123   -16.164645    24.283347 
  380000     443.7688   -481.24906   0.60252308   -38.750177    38.331073 
  381000    452.33737   -481.46657   0.60254156   -30.435257    13.836791 
  382000    459.43882   -493.94398   0.53576902   -35.907949    20.758227 
  383000    424.09576   -459.28396   0.51609576   -36.461541     35.29924 
  384000    445.19768     -444.765   0.40266249   -1.0431276    38.524333 
  385000    426.82196   -482.71733   0.50037397   -57.195929    20.600524 
  386000    442.33016   -427.75438   0.59089206    13.300305    42.686742 
  387000    416.99778   -441.23738   0.54367535   -25.455405    48.381974 
  388000    391.97982   -405.57295   0.56166095   -14.685394     62.91997 
  389000    432.43497   -461.84263   0.59151738   -30.640767    31.942033 
  390000    466.35023   -437.29899   0.75364954    27.837176    23.304817 
  391000    443.62505   -432.56465   0.58336594    9.7719304    53.494853 
  392000    431.46071   -468.38768    0.5937638   -38.153719    31.760278 
  393000    453.05878   -439.29863   0.75334239    12.601847    34.284993 
  394000    471.65702   -463.58687   0.45552753    6.5355596    14.180567 
  395000    443.80278    -454.1943   0.49593307   -11.768169    21.902787 
  396000    456.95209     -439.963   0.62663173    15.687658    40.608295 
  397000    457.03456   -452.47194   0.44167957    3.0758747    47.551058 
  398000    484.12769   -443.66638   0.63036957    39.048951    37.587873 
  399000     419.5735   -436.67096   0.57633808   -18.291474    23.240273 
  400000     436.2831   -416.47386    0.6518505    18.620242    40.612813 
  401000    487.38563   -459.47045   0.59679617    26.455489    10.580796 
  402000    422.89815   -441.86848   0.59762653   -20.157091    3.3840646 
  403000    454.31822   -473.06639   0.61080959   -20.054317    29.158297 
  404000    417.30335   -489.87883   0.39198675   -73.944266    15.887806 
  405000    457.59919   -456.09088   0.53923191   0.11674934      42.1339 
  406000    471.77667   -496.31859   0.50149794   -26.031043    21.833107 
  407000    424.12069   -440.71216   0.53399449    -17.84701    31.169121 
  408000    441.39644   -420.87605   0.64455158    19.302504    30.243092 
  409000    460.85497   -479.63098   0.61412816   -20.106421    12.931751 
  410000    427.88091   -459.66409   0.41309038   -33.175497    20.352681 
  411000     410.3896   -402.40369   0.75636011    7.0106708     34.35155 
  412000    446.85097   -425.19926   0.56980328    20.336059    45.133884 
  413000    416.85764   -416.37679   0.50575207  -0.77229272    42.737337 
  414000    461.35359   -472.53613   0.58828385   -12.540897    14.757923 
  415000    478.93548   -447.14291   0.73719219    30.508941    37.857202 
  416000    406.62012   -441.76517   0.66379882   -36.196954    33.446783 
  417000    458.35421   -425.91074    0.6098781    31.119371    29.197781 
  418000    426.02735   -415.75226   0.56085699    9.0383572    19.439941 
  419000    465.08049   -504.15628   0.59768035   -40.440483    26.112249 
  420000    454.30811   -449.04075   0.51071715    3.8611649    34.499054 
  421000    454.06003    -444.3311    0.6154751    8.4285352      31.2264 
  422000    461.30048   -450.97427   0.52336948    8.9031554    28.378646 
  423000    472.89721   -455.94808   0.56768578    15.521467    59.756135 
  424000    400.06867   -385.79541   0.62926679    13.214467    29.702483 
  425000     432.9771   -462.89529   0.55254401   -31.192557    41.338825 
  426000    448.08509   -397.53876   0.34283958    48.998515    30.803681 
  427000    483.13367   -478.06686    0.4863157    3.5145871    19.629439 
  428000    438.06371   -402.67331   0.51201126    34.054037    48.700452 
  429000    427.96688   -439.02473   0.56761674   -12.295996    33.329879 
  430000    413.83115   -424.96439   0.47663826   -12.402728    20.292641 
  431000    421.54289   -463.15957   0.52016186   -42.875178    42.683451 
  432000    409.18708   -447.69471   0.55115596   -39.683009    33.890023 
  433000    444.37632   -466.32306   0.60667109   -23.215081    19.162208 
  434000    412.45912   -483.47794   0.46992562   -72.289227    19.370132 
  435000     448.6243   -440.31984   0.44575107    6.8572798    27.322166 
  436000    438.38484   -434.88313   0.49331323    2.1452995    24.269162 
  437000     444.6196   -470.42351   0.43446644   -27.245477     25.13272 
  438000    448.05976   -452.23363   0.59682249   -5.4675955    43.609257 
  439000    482.82003   -468.96288   0.47926654    12.299204     26.54603 
  440000    427.63673   -467.32952   0.43221807   -41.064942    33.256369 
  441000    457.24937   -449.34506   0.45460109    6.4295857    41.037863 
  442000    457.85964   -448.07706   0.58914828    8.4398363    34.038529 
  443000    464.52176   -462.61217    0.5006164   0.45018997    20.677817 
  444000    411.27579   -475.57199   0.55118881   -65.480356    21.998735 
  445000    457.73142   -481.98028   0.50244997   -25.677767    54.512895 
  446000     416.0598   -401.91328   0.54898865    12.939978    27.764845 
  447000    453.54094   -414.36262   0.63571438    37.900353    42.364126 
  448000    438.34283   -447.85092   0.52571372   -10.831927    34.188079 
  449000    459.00229   -444.94854   0.53404172    12.651066    47.402675 
  450000    462.85702   -457.84327    0.5658805    3.6266429    20.154977 
  451000    425.14502   -423.46028   0.62784644   0.51873421    41.883074 
  452000    417.07278   -451.02499   0.43282521   -35.279178    45.934102 
  453000    436.69437   -436.37284   0.57207604  -0.94898335    26.777066 
  454000    429.14529   -452.26246   0.57971147   -24.348191    26.287758 
  455000    446.05627   -472.02373   0.58285422   -27.266704    29.071507 
  456000    412.69581   -458.50401   0.57036106   -46.979172    42.435556 
  457000    487.81177   -470.32144   0.54304633    15.975098    15.520775 
  458000    452.82364   -466.76874   0.59563015    -15.26011    34.700586 
  459000    472.08313   -452.32737   0.72589735     18.48974    29.586512 
  460000    454.08385   -426.56094   0.62273504    26.229681    31.319429 
  461000    448.58199   -466.92355   0.55164373   -19.682669    30.927634 
  462000    447.21867   -404.84409   0.53065828    41.018244    42.594125 
  463000    478.33556   -448.86997   0.58288871    28.030181    35.289275 
  464000    438.34003   -467.41612   0.50003159   -30.425601    22.878556 
  465000    429.97102   -474.39321   0.48982017   -45.746594     28.70453 
  466000     445.9932   -469.61426   0.44764187   -25.055252    37.554935 
  467000    429.87341   -442.75941   0.58973221   -14.110079    31.597961 
  468000    415.29667   -437.51699   0.51548512   -23.457143    23.247347 
  469000    460.99349   -481.94564   0.51509881   -22.382175    49.074409 
  470000    451.69115   -444.53491   0.60193372    5.8523053    61.983841 
  471000    472.27149   -463.69198   0.62893234    7.2157384    21.053347 
  472000    475.92552   -458.74782   0.51989183    15.689469    23.495539 
  473000    450.72453   -440.78509   0.62007508    8.6577218    56.912166 
  474000    458.13017   -454.92197   0.61898127    1.8941428    25.215966 
  475000    453.67639   -450.51463   0.59177208    1.8392856    21.782543 
  476000    419.56172   -469.32695   0.60721336   -50.928314    29.191979 
  477000    440.21969   -446.39028    0.5305068   -7.4975431    40.318797 
  478000    425.56684    -415.1595   0.35714687    8.9688493    31.799303 
  479000    459.55707   -441.30729   0.59443652    16.905158    45.592551 
  480000    460.73371   -449.59529   0.61115154    9.8055472    19.086979 
  481000    485.28085   -429.59425   0.52048758    54.159487    20.672941 
  482000    450.82788   -450.99366   0.54577638   -1.5222323    32.158933 
  483000    452.67951   -450.80615    0.6346079   0.59792515    27.069248 
  484000    469.72108   -486.56634   0.51701022   -18.310193    10.573918 
  485000    413.13947   -425.84703   0.61459078   -13.836179    37.995403 
  486000    454.61506   -427.74613    0.6691684    25.619893    16.535607 
  487000    441.34241   -414.58736   0.55247855    25.445322    23.945845 
  488000    440.45245   -461.02573   0.55572405      -21.876    6.9243254 
  489000    474.61608   -492.10648   0.55765148   -18.935343    30.877082 
  490000    477.65831   -489.80743   0.65241069   -13.512146    17.942656 
  491000     463.1298    -454.5144   0.47968308    7.1409457    17.878597 
  492000    447.44594   -431.04268   0.44710292    14.962403    30.282726 
  493000    461.01548   -463.83694   0.43472055   -4.3319533    30.382428 
  494000    443.42329   -481.59879   0.51185624   -39.534636    29.771601 
  495000    462.16743   -501.49322   0.57040454   -40.705456    28.794377 
  496000    483.73191   -480.72368    0.4580895    1.4252569    41.238677 
  497000    431.42907   -445.12042   0.50967616   -15.002056    16.706479 
  498000    401.08379   -454.31091   0.55401777   -54.365435    29.000147 
  499000    451.71609   -412.77378   0.64943888    37.685772    5.8995325 
  500000    421.29471   -449.61915   0.40007301    -29.70199    21.682536 
  501000    450.66968   -446.62264   0.40126817    2.5467478    32.691421 
  502000    451.70526   -493.86921   0.45715823   -43.612721    38.374737 
  503000    456.90363   -448.43752   0.71895981    7.2572072    42.337603 
  504000    402.49638   -396.04156   0.53630015    5.2928262    12.869923 
  505000    444.73796   -434.76665   0.49905715    8.5938368    54.925543 
  506000    452.52246   -492.46138   0.58560626   -41.262689    30.453724 
  507000    426.37658   -479.42842   0.52758441   -54.323308    27.555724 
  508000    476.16965    -471.9488    0.5954922    2.8071934    3.4581827 
  509000    461.48861   -449.03128   0.52601274    11.036128    19.138114 
  510000    428.88225   -440.09669   0.42579022   -12.598287    24.828565 
  511000    479.38202   -468.48626   0.68843685    9.5614953    30.079324 
  512000    446.88669   -469.68475   0.53536722   -24.148294    37.782129 
  513000     392.9816   -458.16615   0.64494421   -66.197753    20.109197 
  514000    425.17803   -470.93938   0.63042533   -46.924928    12.741608 
  515000    435.46204   -510.67811   0.74864137   -76.304823    28.730677 
  516000    441.07802   -448.55777   0.54833765   -8.7925016    22.926981 
  517000    418.27493   -450.52167   0.48243208   -33.529186    54.664446 
  518000    455.12234   -469.42769   0.58472763   -15.640969    22.805775 
  519000    431.68985   -453.98476   0.58209026   -23.534293      37.3459 
  520000    446.90183   -450.14405   0.61418552   -4.5136989    27.423387 
  521000    442.74872   -448.86581   0.53135249   -7.4538732    63.196542 
  522000    436.43693   -495.08898   0.51823665   -59.975317    22.480993 
  523000    422.20595   -422.94379   0.54595439    -1.973345    42.206971 
  524000     436.8814   -437.56336   0.55296241   -1.9723852    42.079671 
  525000    428.24353   -462.94631   0.67844289   -35.831272     40.69842 
  526000    422.51765   -474.18461   0.47812179   -52.971613    36.956952 
  527000    433.15081   -384.94566   0.57633048     46.95384    40.810213 
  528000    431.26647   -460.30154   0.50576169   -30.348998    19.804388 
  529000     486.6423   -445.96346   0.60377606    39.229268    27.194516 
  530000     468.4214   -448.24018   0.65203277    18.856795     28.56268 
  531000    440.42791    -475.2286   0.67320641   -35.985835    26.660667 
  532000    380.35613   -418.47901   0.51973734   -39.208025    51.537305 
  533000    471.23885   -456.16668   0.60728883    13.691104    40.457071 
  534000    477.93507   -473.29583   0.60211998    3.2247622    22.485606 
  535000    509.47174   -511.35755   0.65280874   -3.3826658     18.14031 
  536000    440.90218   -439.78603   0.51296119  -0.23124164     40.78681 
  537000    450.57687   -457.17567   0.49383545   -8.0061392    30.768604 
  538000    479.77151   -443.29343   0.55550838    35.009238    32.386555 
  539000    429.21991   -449.59414   0.53276868   -21.652507    15.755613 
  540000    470.52395   -443.46598   0.55746133      25.6301    27.043407 
  541000    464.71912   -446.44978    0.6490688    16.957576     27.70761 
  542000    467.48059   -462.45298   0.57832799     3.633448    36.537383 
  543000    458.55741   -444.22286   0.56033327     12.96004    35.208594 
  544000    453.97024   -454.43809   0.52401451   -1.8593183    13.744959 
  545000    458.46961   -433.40128   0.50292982    23.636781      22.3625 
  546000    488.68909   -444.80393   0.49881008    42.321995    41.389147 
  547000    434.83752   -411.94302   0.51149661    21.571242    41.169265 
  548000    457.14876   -479.67622   0.41441156    -24.04195    14.358217 
  549000    448.30922    -427.0216   0.60187859    19.997905    41.512558 
  550000    475.71768    -416.1843   0.63027444    58.156404    34.607817 
  551000    441.36209   -440.67418   0.48510167  -0.68927215    25.739735 
  552000    447.06631   -416.28609   0.59869452    29.492555    23.478767 
  553000    425.78885   -436.00802   0.58798387   -11.427755    49.658455 
  554000    451.25204   -423.21174   0.70478235    26.841066    10.398586 
  555000    456.93751   -438.42071    0.7301921    17.318989    29.763517 
  556000    418.06562   -474.06951   0.61840466   -57.149473    2.3530454 
  557000    468.17047   -461.11705   0.72195908    5.7999706    41.311294 
  558000    468.50066   -407.35129   0.67792001    59.850493     24.38324 
  559000    443.50159    -458.9141   0.61689792   -16.666929    23.537025 
  560000    424.95823    -454.4803   0.54756946   -30.767575    31.068179 
  561000    436.78753   -436.84517   0.48211367   -1.4185066    6.9264643 
  562000    437.77121   -452.03182   0.53289618    -15.57485    27.741359 
  563000    424.15544    -483.4183   0.68970655   -60.362834    25.967774 
  564000    407.79377   -451.05695   0.46990773   -44.513923    2.8540334 
  565000    444.71026   -472.67019   0.59268204   -29.243668    24.426002 
  566000    432.67449   -489.85436   0.68079212     -58.3247    30.409531 
  567000    483.91443   -441.11358   0.60806958    41.367085    29.568379 
  568000    444.58082   -511.72089   0.57994634   -68.435993    52.077839 
  569000    452.88759   -454.31802   0.60536587   -2.7359751     25.84434 
  570000    472.54625   -454.84482   0.57694231    16.284508    29.454625 
  571000    434.97478   -460.61302   0.46090343   -27.012674    38.215282 
  572000    435.96157   -449.07036   0.51319506   -14.435093    28.769942 
  573000    410.06337   -455.66688   0.61916563   -46.714567    22.156009 
  574000    485.01227   -478.45805   0.63922354    5.1469813    28.599954 
  575000    432.85196    -454.3653   0.55416795    -22.78556    37.410751 
  576000    437.98274   -461.60822   0.66708925   -24.806424    19.477101 
  577000    427.10478   -413.68765   0.59200005    12.207002    38.267576 
  578000      468.421   -430.69169   0.66758366    36.420427    21.498039 
  579000    456.77075   -447.19152    0.5445185    8.1964458    33.709989 
  580000    423.93963   -427.57449   0.59262735   -4.8310077    35.955299 
  581000    455.15963   -415.02578   0.70487188    38.918214     41.01056 
  582000    469.33944   -433.50762    0.4330384    34.284524     19.39785 
  583000    449.77029   -457.11464   0.64996169   -8.5921615      13.4811 
  584000    450.95652   -428.00649   0.57903291    21.626291    41.934403 
  585000    459.99489    -453.6612   0.61432723    5.0071124    22.497755 
  586000    432.32061   -499.87771   0.54800171   -68.833243    27.033094 
  587000     426.7938   -442.03247   0.53346499   -16.506021      23.4946 
  588000    400.09161   -462.24917   0.62202434   -63.223695    27.607857 
  589000     461.3354   -443.87056    0.5643431    16.082623    34.730576 
  590000    420.96435   -429.30627   0.60577896   -9.5123645    25.033562 
  591000    400.80718   -464.33727   0.53186211   -64.689399    23.619226 
  592000    460.49367   -459.40156   0.54325484  -0.30763856    24.854797 
  593000    466.76201   -466.95569   0.59063016   -1.5725079    20.812808 
  594000     431.5598    -467.5236   0.43645534   -37.348268    32.428952 
  595000    429.54726   -464.22275   0.67394364   -35.813978    16.591975 
  596000    452.58205    -458.8875   0.62699864   -7.5880748    37.163305 
  597000    456.10896   -469.44964   0.61579775   -14.649401    6.5637777 
  598000    443.64649   -445.40401   0.55546714   -3.0739746    31.404409 
  599000    451.30406   -405.51064   0.48011542    44.369296    25.221897 
  600000     448.4807   -408.82922   0.48983943    38.248993     41.42072 
  601000    459.39259   -448.00224   0.53404914    9.9860325    30.587016 
  602000    426.19193   -454.34536   0.66249692   -29.289214    27.673515 
  603000    414.99518    -401.5582   0.62337657    12.309324    34.443892 
  604000    479.76077   -470.38259    0.6317906    7.9856593    36.498151 
  605000    427.83857    -425.5077   0.61016797    1.1358153    41.568529 
  606000    448.99592   -448.13359   0.67232011  -0.35984368    35.374596 
  607000    471.00009   -455.70016   0.61537757    13.927968    24.184557 
  608000    438.62445   -458.48783   0.55878004   -21.155336     37.82746 
  609000     466.8639    -459.7247   0.58438139    5.7536914    14.696083 
  610000     436.6678   -490.70819   0.48875674   -55.394113    42.812102 
  611000    473.72627   -462.60334   0.49920531    9.6232933    32.441468 
  612000    452.44698   -474.23845   0.39667634   -23.303847    35.969889 
  613000    416.91621   -459.72474   0.47863311   -44.089038    37.253584 
  614000    452.42091   -417.31571    0.4724249    33.668673     51.80359 
  615000    466.86769   -469.73897   0.45855265   -4.3826302    30.674479 
  616000    442.00242   -448.42947   0.60350556   -7.6885358     29.64067 
  617000    460.84186   -453.46533   0.59281155    6.0248587    5.9578581 
  618000     421.7955   -438.54809   0.54170346   -17.990609     48.41845 
  619000    474.14615    -428.0821   0.62281583    44.686243    36.263481 
  620000    445.93787    -433.9473    0.6779242    10.786895    56.748818 
  621000    439.10574   -423.91011   0.62457015    13.967434    47.799162 
  622000    440.92567   -430.73074   0.49721924    8.8317016    16.106427 
  623000     423.3629   -457.45548   0.58953792   -35.289386    29.685248 
  624000    436.34518   -445.31018    0.5271272   -10.278993    42.659637 
  625000    440.58588   -442.87504   0.62630916   -3.5218667    25.212994 
  626000    442.99797   -506.43791   0.51474181   -64.794395    27.177105 
  627000    421.45228   -445.88049   0.64336346   -25.563123    23.049569 
  628000    436.18658   -449.42618   0.62247168   -14.457576    14.101396 
  629000    440.19878   -447.66065   0.54906835   -8.7701804    32.380009 
  630000    427.59152   -376.13863   0.63427698     50.28299    59.736508 
  631000    434.88235   -419.42893    0.5596764     14.17815    40.877314 
  632000    454.96366   -452.82836   0.65702586   0.87265145    24.231388 
  633000    439.09415   -468.97145   0.44680026   -31.283213     36.85113 
  634000    405.67584   -426.55217   0.51087127   -22.077167    30.243241 
  635000    459.76064   -479.42411   0.43869477   -21.164693    21.611817 
  636000    452.79805   -466.75766   0.55379633   -15.316354    19.863525 
  637000    456.85362    -432.6857   0.48088291    22.721142    36.384817 
  638000    451.65165   -441.35916   0.59690246    8.9836895    26.932319 
  639000    438.27476   -440.26681   0.61334244   -3.2279699    34.577612 
  640000    468.82276   -449.97015   0.53195708    17.406405    30.664971 
  641000    449.94668   -433.77643   0.52396815    14.795708       35.047 
  642000     456.8476   -480.07438   0.59295333    -24.56146    40.522728 
  643000    431.81639   -396.44518   0.68455536    34.233753    42.687825 
  644000    460.42012   -435.14859   0.55840682    23.887231    60.319948 
  645000    452.62968   -420.67285   0.56397685    30.610973    33.687657 
  646000     437.4709   -433.75747   0.62358446    2.4911479    32.854553 
  647000    399.25446   -497.92478     0.584235     -99.7707     36.75182 
  648000    405.84308   -448.83486   0.43758357   -44.266614    7.8709717 
  649000    462.79765   -458.43388   0.56919155    2.9802222    30.109737 
  650000    428.18656    -477.6877   0.48250536   -50.825333    52.375256 
  651000    447.26589   -455.23246   0.51875143   -9.3350131    23.071231 
  652000    474.46955   -440.84027   0.51259754    32.139897    41.423249 
  653000    437.95543   -455.53175   0.71400155   -18.710231    37.670126 
  654000    431.72185   -447.41651   0.55474934   -16.961525    35.462509 
  655000     445.2782   -417.89137   0.63321112    26.141228    15.832095 
  656000     451.0099   -498.99087   0.52364239   -49.360319    22.081865 
  657000    454.28074   -431.01078   0.75883994    22.112003    27.069845 
  658000    428.51721   -404.22285   0.64918407    23.135454    38.401897 
  659000     442.7024   -433.13403   0.55705075    8.2574837    35.554896 
  660000    466.45241   -423.03133   0.53371803    41.986641    47.903619 
  661000    445.85173   -446.27471   0.52186654   -1.7823465    24.456845 
  662000    435.28045   -423.06789   0.54492599    10.920863    49.767507 
  663000    446.86864   -457.72831   0.60386596   -12.141325    21.498334 
  664000    445.58893   -437.17455   0.49204028    7.0262978    38.838463 
  665000    437.20574   -408.79308   0.52207744    27.089979    36.548605 
  666000    461.87336   -451.37928   0.53914651    9.0843974    18.685152 
  667000    438.65599   -449.15378   0.67980651   -11.668845    17.544179 
  668000    433.00502    -447.5241   0.59781774   -15.748286    64.084312 
  669000    408.08892   -467.59017   0.51202585   -60.711121    12.238811 
  670000    448.47946   -433.13203   0.64520381    14.100312    39.488681 
  671000    421.34211    -410.8449   0.68270447    9.4021002    35.405832 
  672000    417.73556   -451.70304   0.57684846    -35.15323    34.641866 
  673000    444.54508   -429.06573   0.62969411    14.233326     46.89181 
  674000    461.02578   -456.98606    0.5386153    2.6330815    12.070426 
  675000    437.85851   -469.48481   0.48948784   -32.984314     38.07148 
  676000    394.67754    -425.2075   0.58118625   -31.614082    18.368062 
  677000    456.38469   -447.72915   0.56612662    7.2959936     34.02086 
  678000    448.89371   -466.28649   0.51174956   -18.775094    30.741397 
  679000    421.99549   -399.94717   0.46817382    20.735928    50.315198 
  680000    413.49506   -435.84206   0.45199862   -23.639699    36.198383 
  681000    445.89401   -429.69048   0.54854653    14.870664    24.404405 
  682000    452.58706   -435.32644   0.44420241    15.795168     43.23348 
  683000     462.2806   -493.32149    0.4235326   -32.567906    24.673469 
  684000    460.07337   -461.03785   0.58704403   -2.3186684    27.560307 
  685000    434.60208   -426.22992   0.54436065    7.0827627    37.045163 
  686000    467.40879   -470.76639   0.64321744   -4.6865775    34.366713 
  687000    420.10159   -440.79687   0.47690283   -21.990958    45.746462 
  688000    474.04318   -430.16491   0.56369182    42.441779    38.015903 
  689000    441.82416   -465.99161   0.55642302   -25.475268    33.706386 
  690000    462.00937   -423.67417   0.58218663    36.967986    31.919361 
  691000    409.69327   -429.32136   0.62745932   -20.729299     13.13042 
  692000    412.34137   -462.79043   0.69628257   -51.492616     26.09815 
  693000    439.51497   -484.24539   0.48850188   -46.096404    26.771528 
  694000    451.43119   -437.54369   0.63205912    12.614793    23.849186 
  695000    412.69678   -412.64434   0.59717764    -1.091715    34.231312 
  696000    414.46311   -410.15297   0.63934603    3.2007004    33.983751 
  697000    451.88173   -453.30023    0.4908203   -2.8343534    24.263155 
  698000    449.14736   -412.44383   0.66457937    35.472976    38.599426 
  699000    475.54976   -476.62499   0.67407734   -2.4076897    37.310584 
  700000    478.29215   -460.59966   0.59990889    16.274294    23.667048 
  701000    454.64666   -456.94459   0.62320675   -3.5930607    23.980072 
  702000    423.27239   -443.16065   0.69862116   -20.975599    32.742623 
  703000    408.26278   -395.71979   0.62685384    11.447211    54.987269 
  704000    468.46327   -457.20043   0.63585777     9.922057    41.825477 
  705000    456.94478   -418.92259   0.66293917    36.757094    49.271642 
  706000     440.2708   -417.70347   0.52890659    21.238559    28.379197 
  707000    473.40402   -475.85563   0.69273158   -3.7563554    30.652969 
  708000    452.34705   -496.52565   0.61443691   -45.472794    19.934995 
  709000    421.44196   -429.68089   0.65036284   -9.3668068    32.873477 
  710000    416.69407   -444.12534   0.54071131   -28.648764    14.063171 
  711000    427.70702    -389.7438   0.58045446     36.73901    22.226833 
  712000       415.64   -467.63148   0.77159828    -52.97364    15.259826 
  713000    400.40265   -474.15788   0.55612915   -74.888559    20.563026 
  714000    462.19163   -428.69053   0.62283488    32.173763     40.57924 
  715000    448.38972   -460.12114   0.45072212   -13.172628    25.579613 
  716000    436.59917   -479.39753   0.67343973    -43.96711    16.623623 
  717000    405.47561   -412.49059   0.60612291   -8.1197295    44.089537 
  718000    440.96578   -498.49462   0.53780576   -58.851646    48.472192 
  719000    424.05003   -432.04185   0.59248449    -9.188585    36.175546 
  720000     459.2917   -428.64089   0.57762427    29.290494    32.951018 
  721000     445.8411   -469.62846   0.60728037   -25.061262    20.622063 
  722000    446.51804   -436.88559   0.51621099    8.2646186    27.903308 
  723000    472.74034    -449.7796   0.37968257    21.345735    39.228003 
  724000    471.24879   -479.06589    0.5887258    -9.216759     28.66016 
  725000    438.28309   -436.13931    0.6630531   0.95753986    26.716146 
  726000    424.47506   -485.66616   0.60689994   -62.375229    20.656753 
  727000    422.81469   -478.31285   0.72342251    -56.55877    31.641661 
  728000    467.68896   -403.13847   0.52633568    63.103451    53.838398 
  729000    427.90404    -463.1477   0.43877488   -36.610384    16.228991 
  730000    467.42418   -452.29713   0.57351253    13.728303    29.230396 
  731000    417.11645   -445.98109   0.39484116   -30.229782    16.573902 
  732000    449.91726   -437.42084    0.5525028    11.150539    23.192387 
  733000    452.18442   -435.95773   0.64057879     14.95932    18.508932 
  734000    443.48241   -483.35951   0.51235493   -41.235984    25.087377 
  735000    462.16776   -454.15073   0.45787186    6.5248336    44.864911 
  736000    439.42543   -442.21122   0.53161029   -4.1082984    25.418399 
  737000    472.28574   -483.96471   0.43766663   -13.234071    29.664056 
  738000    448.72362   -465.01523   0.46247033    -17.72249    35.025481 
  739000    480.17436    -516.0161   0.53080496   -37.336983    30.048219 
  740000     425.4079   -450.25189   0.56024528   -26.078719     47.87704 
  741000    411.75983   -453.30736   0.62121058   -42.663708    40.400013 
  742000    414.45747   -489.78691   0.53650252   -76.541697    8.0209584 
  743000    440.20065   -444.89928   0.63879714   -5.9172212    30.801565 
  744000    446.83583   -481.23502   0.65016864   -35.634408    19.934118 
  745000    439.60564   -469.41706   0.53940263   -31.126893    41.804928 
  746000    420.10207   -427.78121   0.54120858   -8.9105187     32.46371 
  747000    391.24836    -433.1268   0.59640876   -42.932872    21.581488 
  748000    440.73499   -394.44913   0.42537107    44.851594    33.650382 
  749000    482.55639   -482.56045   0.53612904   -1.5040336    35.363039 
  750000    438.40581   -481.22412   0.49226476   -44.175865    40.491223 
  751000    429.96848   -441.17555    0.6671529   -12.354136     38.39617 
  752000    456.95349   -467.74384   0.50262454   -12.215791     40.62517 
  753000    413.74235   -464.96932   0.64005984   -52.332659    18.871569 
  754000    397.18545   -412.34958   0.55817274   -16.281838    23.977533 
  755000    451.30864   -484.21897   0.44324186   -34.371349    18.863675 
  756000    442.70767   -407.49347    0.6046192    33.950859    34.869033 
  757000    401.30104   -446.96439   0.54998704   -46.806619    37.289741 
  758000    427.19609   -410.26369   0.66841454    15.798301    57.343722 
  759000    423.80854   -466.69353   0.63932206   -44.033887    27.088542 
  760000    459.80475   -503.25402   0.57179805   -44.817575    38.598794 
  761000    428.05102   -416.03725   0.66868272    10.876328    34.337812 
  762000    437.27095    -417.4044   0.53155924    18.553081    25.688409 
  763000     434.9939   -458.09628   0.55858379   -24.379218    34.408401 
  764000    451.85457   -434.73391   0.70045911    15.914562    27.346735 
  765000    445.42503   -484.17612   0.64809713   -39.982418    26.714268 
  766000    486.92682   -475.87146   0.63703389    9.6378514       30.421 
  767000    433.29355   -426.72563   0.63805564    5.3777334    45.018815 
  768000    456.48364   -466.05918   0.74343209   -10.758198    19.550783 
  769000    410.49203   -417.25744   0.60756181   -7.8898795    26.094733 
  770000    435.34794   -417.41445   0.50332346    16.599894    20.802796 
  771000    465.92116   -476.79702   0.75301904   -12.088759    32.943885 
  772000    431.91555   -417.27655   0.69626953    13.512849    38.272404 
  773000    451.44128   -452.92176   0.72989133   -2.6554105    21.167568 
  774000    481.29039   -434.85137   0.52891851     44.93718    6.8222995 
  775000    455.75883   -445.30073   0.58781044     9.122882    31.320679 
  776000    431.63773   -422.51607   0.51868737    7.8190931    58.360401 
  777000    423.17226   -444.26837   0.59996533    -22.28168    30.882705 
  778000    475.40447   -454.27527   0.49372225    19.616994    15.023307 
  779000      471.021   -468.31875   0.64877938     1.363601    25.471478 
  780000    446.99709   -456.55433   0.55967188   -10.883625     8.279841 
  781000    426.64921   -456.37564   0.58876877   -30.937868    42.688626 
  782000     422.0113   -457.87647   0.51603706   -37.129774    30.776582 
  783000    428.44707   -449.38173   0.64025701   -22.102193    40.758697 
  784000     435.5779   -424.11293   0.65646746    10.283556    38.175475 
  785000    473.78338    -458.9629   0.61935565    13.440745    30.412142 
  786000     458.6253   -420.66001   0.58510021    36.615263    26.084962 
  787000    455.05399   -477.98763   0.57907623   -24.274628    37.246663 
  788000    475.54545   -421.26878   0.54519016    52.815346    22.902676 
  789000    416.52966   -443.76049   0.30031544   -28.688023    21.631821 
  790000    462.35127   -469.20211   0.50482522    -8.296865    24.741576 
  791000    434.40531   -425.12791    0.4177188    7.8621868     21.91596 
  792000    458.75883   -422.45293    0.5446301    34.914839    37.271082 
  793000    430.29426   -447.03741   0.46142378   -18.097317    32.678933 
  794000    444.22107   -466.12703   0.50821205   -23.272093    23.927767 
  795000    414.29544   -438.84693   0.41453268   -25.885043      37.1353 
  796000    449.32819   -460.00241   0.41549386   -12.154619    26.755759 
  797000    416.41932     -452.252   0.51056991   -37.079154    30.518339 
  798000    462.09654   -471.90229   0.49055739   -11.264966    9.6443488 
  799000    453.48948   -468.58805   0.56228023   -16.449748    38.345171 
  800000    455.37566   -467.10671   0.54614256   -13.106325     34.48563 
  801000    443.55232   -450.09536    0.3540548   -8.0605205    40.096078 
  802000    420.84142   -466.98463    0.4852851    -47.43363    40.035263 
  803000    460.62536   -411.52184   0.53095033    47.690909    30.057107 
  804000    433.68313    -418.2775   0.58273349    14.158477    27.159323 
  805000    474.34524   -478.90255   0.67109667    -5.887663    30.707668 
  806000    466.61627   -475.12566   0.43035622    -10.04788     39.01086 
  807000    393.18269      -477.88   0.54753269   -85.808776     50.88242 
  808000    419.93771   -445.18605   0.42455071   -26.595681    51.274817 
  809000    381.27426   -427.14816   0.57395615   -46.908695    35.470299 
  810000    436.38276   -415.62208   0.52687505    19.446278    35.834637 
  811000    410.10818    -439.1319    0.5363945   -30.217746    30.951279 
  812000    478.64263   -512.56549   0.48855084     -35.4539    21.618697 
  813000    446.07932   -445.91512   0.53072979   -1.1872577    35.549017 
  814000    412.14933   -481.72456   0.50560249   -70.808653    17.521186 
  815000    455.39722   -445.82136   0.66415144     8.318506    21.494891 
  816000    459.73013   -453.88905   0.46263435    4.3639309    28.552931 
  817000    426.70892   -433.15465   0.56412163   -7.6820645    31.457572 
  818000     462.7215    -464.3395   0.59308461   -2.9773274    40.583442 
  819000    422.73401   -468.74851   0.58661274   -47.211568    44.890377 
  820000    454.88697   -516.19551    0.4579953   -62.769892     34.02273 
  821000    434.21389   -476.10959   0.72863461   -42.999198    27.539809 
  822000    471.34315    -450.8826   0.65136442    19.123128    45.255345 
  823000    472.95994   -443.66249   0.56518316    27.867013    38.941031 
  824000    465.23998   -420.57612   0.74288886    43.443711    32.890134 
  825000    424.42448   -424.85394   0.55878657   -1.6614965    12.944161 
  826000    417.23255   -409.92659   0.53947919     6.084962    26.848064 
  827000     461.2922   -442.29879   0.54251374     17.58954    28.363146 
  828000    451.10669   -472.55259   0.57411961   -22.775182    17.486504 
  829000    469.03522   -482.48393   0.63861776   -14.789153    28.395595 
  830000    480.65751   -411.34704   0.50965896    67.792044     37.87281 
  831000     462.3476   -462.44402     0.662527   -1.3847303     38.21771 
  832000     424.7308   -476.71509   0.69386537   -53.082533    30.152482 
  833000    485.36093    -429.9122   0.55633985    53.957139    33.180708 
  834000     427.4989   -433.63388   0.69305875   -7.2457062    29.986596 
  835000    424.62332   -454.13839   0.57392653   -30.732802    34.289353 
  836000    440.63724   -469.60373   0.55647922   -30.269243    17.619832 
  837000    454.15304   -438.35916   0.66945881    14.547081    22.257802 
  838000    460.14049   -483.66247   0.63469818   -24.828803    44.096069 
  839000    473.32039   -402.49522    0.5823736    69.410415     32.43469 
  840000    465.00595    -467.3442   0.68553643   -3.6147691    29.175591 
  841000    438.12005   -459.45909   0.55684291     -22.6308    17.413639 
  842000    449.22643   -424.99644   0.61388018    22.948406    44.810586 
  843000    457.29394   -489.57052   0.66452204   -33.541566    48.795598 
  844000    409.28835   -380.66082   0.58498962    27.485562    20.327415 
  845000    471.67248   -452.31936   0.54284056    17.905774    41.703893 
  846000     404.7399   -447.55803   0.54314236   -43.982753    36.083462 
  847000    470.16134   -448.67776   0.60235555    20.102127    6.5821442 
  848000    426.19457   -446.47897   0.57763725   -21.505045    30.473555 
  849000    453.88475   -488.54966   0.59917973   -35.980861    28.308086 
  850000    478.23494   -447.54312   0.52072655    29.194675    28.389956 
  851000    440.17167   -423.51454   0.43806252    15.237924    50.562257 
  852000    452.12223   -462.00299   0.59959083    -11.18886    34.388202 
  853000    443.61097   -471.20186   0.46845589   -28.994212    23.830258 
  854000    475.69219   -484.68506   0.51186409   -10.488149    44.460013 
  855000    436.89249    -406.5926   0.61166015    29.068124    53.680518 
  856000    422.95697   -414.87664   0.48275087    6.7784563    28.304512 
  857000    464.49557   -454.91001   0.50312058    8.1287859    20.297894 
  858000     422.0956   -450.01105   0.41963407   -29.276811    68.516479 
  859000    425.85111   -436.67304   0.50826454   -12.110505    41.029083 
  860000    431.54315   -464.77799   0.59948497   -34.456214    31.293577 
  861000    454.90838   -506.21443    0.4507902   -52.774703    28.791177 
  862000    424.59712    -451.6977   0.37418685   -28.517948    31.988412 
  863000    461.69643   -430.88735   0.47588741     29.33688    41.110553 
  864000    484.79256   -510.59302   0.42576949   -27.420226    9.8038661 
  865000    422.80311   -463.34211   0.46541594    -41.85756    36.221354 
  866000     451.4651   -441.46003   0.65978972    8.7599449    36.624287 
  867000    420.53109   -428.70701   0.62092313   -9.3293896    15.332146 
  868000    441.66954   -453.73525   0.47627217   -13.453029    26.354864 
  869000    466.47041   -470.94727   0.56778983   -5.8773017    33.987673 
  870000    416.04067   -467.60553   0.73927957   -52.581031     37.28533 
  871000    444.59187    -417.5707   0.57630903    25.721562     39.15504 
  872000    444.30132   -463.32101   0.48406822   -20.410312    38.857732 
  873000    476.76805   -453.27538    0.4736164    21.954607    39.946544 
  874000    396.53535   -420.82791   0.65917965   -25.306529    48.391233 
  875000     465.1954   -467.30756    0.6166212   -3.4583911    23.989659 
  876000    458.07289    -481.6212    0.6098963   -24.871208    6.4445334 
  877000    471.69297   -448.75698    0.6066483    21.552371    18.459881 
  878000    447.99271   -488.73935   0.62048284   -42.016421     27.61411 
  879000    461.09061   -460.00836    0.5849169    -0.278366    37.875166 
  880000    465.01257    -433.8606   0.65008669    29.839982    25.714371 
  881000     480.3715   -487.50298   0.61143626   -8.5469263    25.590375 
  882000    447.91009   -460.59707   0.46330977   -14.113586    32.526424 
  883000    461.32326   -484.85567   0.70972798   -24.769194    51.073331 
  884000    422.44653   -443.50961    0.5231576   -22.322397    21.547651 
  885000    430.38209   -414.23061   0.53240327    14.867922    40.178435 
[...]
 1761000    436.16015   -468.81437   0.66939588   -33.825158    35.559152 
 1762000    440.70476   -433.60924   0.58113645    5.8171465     30.87967 
 1763000    451.19207   -444.05418   0.57960356    5.8137324    21.249729 
 1764000    472.46727   -465.84086   0.46562136    5.0984998    31.091835 
 1765000    461.55307   -437.46362   0.69135967    22.833325    19.078304 
 1766000    452.14817    -460.3693    0.6806294   -9.4482958    29.825471 
 1767000    422.01092   -456.10115   0.53767673    -35.33319    24.480605 
 1768000    430.94555   -444.27015   0.51309417   -14.629836    36.490052 
 1769000    446.16858   -480.24116   0.60784562   -35.347304    16.967825 
 1770000    440.52568   -421.20216   0.57504488    18.039814    55.531918 
 1771000     446.8881   -471.88456   0.52084315   -26.361215    37.361186 
 1772000    439.49105   -392.11892   0.61027166    46.128011    41.597136 
 1773000    429.91808   -417.31859   0.60553043    11.391018    18.319078 
 1774000    409.57495   -434.28406   0.56637433     -25.8709    27.924944 
 1775000    458.86218   -473.26866   0.59273348   -15.749873    39.596649 
 1776000    449.97601   -445.28802   0.57025307    3.3596059    23.353073 
 1777000    469.25186   -466.06671   0.68009122    1.8852745    43.600312 
 1778000    414.45984   -410.46707    0.5398934    2.7838905    33.356567 
 1779000    457.10651   -479.98225   0.54014088   -24.264319    27.646188 
 1780000    430.94109    -450.5828   0.59779933   -20.862221    49.455546 
 1781000    446.90801   -485.62029    0.6880113   -39.909954    16.435111 
 1782000    434.27989   -416.57812   0.53082759    16.400195    17.489669 
 1783000    444.58842   -458.84459   0.66296632   -15.469098    58.929349 
 1784000    450.54643   -474.72863   0.67533712   -25.407899    33.283644 
 1785000     437.4438   -483.32612   0.61661804   -47.111457    20.113123 
 1786000    423.59223   -428.27671   0.51181129   -5.9599779    23.929135 
 1787000    439.13105   -466.68609   0.48879428   -28.919111    17.986681 
 1788000    426.74753   -440.08764   0.67459039    -14.46615    32.945072 
 1789000    438.78833    -435.6419    0.6586399    1.9536483    37.977796 
 1790000    453.77389     -429.735   0.75591519    22.880146    17.689279 
 1791000    396.44336   -424.49382   0.53775259   -29.185469    28.046936 
 1792000    434.73179   -390.12969   0.48309307    43.250883    22.321744 
 1793000    442.65192   -463.73946   0.69407903   -22.261187    21.524694 
 1794000    466.11662   -500.04572   0.63637295   -35.259462    37.610158 
 1795000    401.01492   -413.67859    0.4478428   -13.907871    23.325497 
 1796000    460.60208   -453.81834   0.56130493    5.4015809    21.877403 
 1797000    456.53723   -465.30651   0.64162529   -10.053971    31.434708 
 1798000    484.57415   -489.90844   0.56324199   -6.8156705    24.567603 
 1799000    448.45069   -452.07908   0.60726808   -4.9133189    26.852248 
 1800000    445.32189   -416.71349   0.54739358    27.276791    39.451017 
 1801000    455.90418   -441.34039   0.67413309    13.314274    32.136695 
 1802000    401.69742   -433.56221   0.47415956   -33.085563    17.005909 
 1803000    466.39818   -460.47431   0.53929177    4.4952384    22.506358 
 1804000    366.04215   -460.92678   0.47797862   -95.951134    28.580793 
 1805000    458.67916   -420.39998   0.57530959    36.919132    26.966811 
 1806000    448.24301   -434.71503   0.52094314    12.157603    40.611609 
 1807000    448.17241   -449.72829   0.62287366   -2.8240293    31.007866 
 1808000    456.02195    -447.9783   0.53281444    6.6523216    45.549699 
 1809000    443.42819    -463.0091   0.70075123   -20.751164    31.520228 
 1810000     442.2653   -442.02793   0.48541045   -1.1433153    42.653968 
 1811000    465.73735   -422.20075    0.5833369    42.154795    16.333042 
 1812000    461.33185   -486.25299   0.53890024   -26.328785    26.407191 
 1813000     451.8527   -471.99499   0.60754723   -21.441294    9.4849006 
 1814000    424.31581    -472.7477   0.61440848   -49.607837    26.752641 
 1815000    435.66179   -401.70216   0.59831198    32.719708     24.43494 
 1816000    427.71927   -442.63024   0.62763213   -16.088063    22.890362 
 1817000    457.33777   -506.19494   0.62643267   -50.160428    38.982258 
 1818000    470.26922   -474.05986   0.54548046   -5.2294224    36.395673 
 1819000    459.41779   -447.05352   0.60780767    11.033609    48.414782 
 1820000    443.57847   -437.13371   0.50992261    5.0830355    38.176923 
 1821000    442.92389   -420.29868   0.59240719    21.348741    27.859618 
 1822000    445.95484   -484.78166   0.59143393   -40.117052    14.841955 
 1823000    479.54802   -484.93027   0.49365208   -6.9120026    19.147409 
 1824000    437.21969   -460.33914   0.65400596   -24.310262    16.373591 
 1825000    457.44032   -487.99128   0.46628125   -32.014807    34.575443 
 1826000    414.00643   -458.18664    0.4836613   -45.443413    33.881361 
 1827000    463.49757   -427.13896   0.60844985    35.011366    48.984903 
 1828000    444.90494   -411.03021   0.69655675     32.69405    28.868504 
 1829000    466.20913   -468.14405   0.61865013   -3.2833943    42.729833 
 1830000    444.02176   -457.28422   0.65335011   -14.482622    20.080586 
 1831000    428.57814   -425.26762   0.53127827    2.0334604    25.824527 
 1832000    459.13544   -420.75895   0.64563157    37.084841    40.079852 
 1833000    440.03178   -456.04038   0.51975797   -17.345518    24.108978 
 1834000    433.48916   -462.89378    0.6081964   -30.625491    30.703739 
 1835000     432.5912   -441.18879   0.43906451   -9.9838052    21.624336 
 1836000    424.41543   -492.95786   0.55800145   -69.775211    37.313182 
 1837000    456.81697   -508.15316   0.59536999    -52.66832    28.383046 
 1838000    428.34778    -449.8669   0.55169953   -22.774799    2.4113198 
 1839000    449.19774   -484.37319   0.59421906   -36.476573    27.979602 
 1840000    442.56627   -439.25579    0.5450201    1.9881311     28.47212 
 1841000    425.56543   -434.96369   0.54205246   -10.651848    24.430214 
 1842000    438.35831   -477.83213   0.67379607   -40.649639    18.242785 
 1843000    445.99916    -514.0117   0.59625117   -69.298145    51.338026 
 1844000     420.1307   -440.42635   0.35023399    -21.71812    19.725499 
 1845000    455.62483   -457.05118   0.60718575   -2.7416353    27.456768 
 1846000    429.39207   -411.62484   0.57406125    16.529507    31.344289 
 1847000    442.91659   -420.23697   0.50568289    21.316459    40.677844 
 1848000    465.59764   -422.82334   0.60114696    41.410904    26.897642 
 1849000    447.36014   -453.69945   0.67350337   -7.5534039    17.654431 
 1850000    434.32173   -421.05507   0.58807698    12.022157    14.036011 
 1851000     428.4328   -450.27251   0.52971238   -23.117738    37.583939 
 1852000    412.74557   -432.49648   0.57513269   -20.917318    15.742898 
 1853000    427.81765    -494.9944   0.62652983   -68.355358    37.120979 
 1854000    443.76901     -439.839    0.5950102    2.6525767    39.635249 
 1855000    469.62821   -429.92959   0.58330696    38.300368    24.255041 
 1856000    420.64345   -486.05182   0.67572452   -66.507509    41.448267 
 1857000    443.33483   -457.82715    0.5171196   -15.845804    21.837257 
 1858000    468.44856    -452.5998   0.61966321    14.491844    38.553136 
 1859000    457.65769   -395.36337   0.63032528    60.993604     33.70217 
 1860000    419.00832    -414.4888   0.69661162    3.4481631    17.240345 
 1861000    458.42762   -458.11353   0.66597813  -0.95422578    6.5356395 
 1862000    467.59936   -448.66737   0.47097156    17.429969    15.500633 
 1863000    416.68784   -466.52504   0.63672773   -50.958652    47.787385 
 1864000    431.39335   -467.94217   0.50595343   -37.863098    20.792062 
 1865000    408.29428   -443.89616   0.56802398   -36.756617    14.649669 
 1866000    400.93169   -464.03799   0.59595093   -64.202043    43.672437 
 1867000       438.42   -446.09471   0.53027728    -8.994299    42.792104 
 1868000    458.83621   -419.02932   0.48840987    38.359282    47.882539 
 1869000    456.71923   -466.32402   0.59749629   -10.934386    22.769044 
 1870000    437.28838   -447.29183   0.49890514    -11.34964    31.632367 
 1871000    436.09519   -427.67394    0.6282862    7.2094764    34.091789 
 1872000     442.3521   -447.70223   0.49499049   -6.7216065    52.729688 
 1873000    474.37628   -428.51719   0.60759663    44.465097    15.442649 
 1874000    441.93296   -416.18755   0.76526527    24.645986    39.121763 
 1875000    447.93777   -449.27679   0.60725845   -2.6217903    16.834109 
 1876000    465.91331   -421.58677    0.6972245    43.057885    23.789604 
 1877000    424.00212   -456.32772   0.58699095   -33.527653    42.309084 
 1878000    451.51295    -465.0663   0.60303366   -14.855438    15.771207 
 1879000    444.60116   -445.92099   0.58101407   -2.6147692    42.108104 
 1880000    415.04759   -467.15761   0.49068522   -53.370591    19.522702 
 1881000    461.61405   -450.95032   0.58297774    9.2989638    13.120775 
 1882000    436.36465   -433.59221   0.54927663    1.4805102    22.283677 
 1883000    459.08988   -435.93413   0.52072682    21.739385    25.550099 
 1884000    408.79793   -441.87639    0.5519101   -34.251442     24.03581 
 1885000    444.29303    -452.2935   0.61414316   -9.2609827    12.422382 
 1886000     418.7482   -436.16322   0.51604892   -18.665845    42.593494 
 1887000     479.0268   -463.77903   0.60036827    13.826933    26.655731 
 1888000    457.94516   -479.75008   0.55131207   -23.185866    30.822559 
 1889000    402.16856   -446.70539    0.6985057   -45.535235    54.416735 
 1890000    453.04472   -393.97269   0.56785397    57.728309    29.969157 
 1891000    474.36072   -513.78564   0.51980351    -40.90664    26.357228 
 1892000    455.31353   -450.09937   0.50394602    3.7969501    55.686671 
 1893000    429.55307   -442.28907   0.65289965   -13.895555    49.144983 
 1894000    431.43748   -441.40682   0.60522349   -11.184526    37.225209 
 1895000     464.9285   -394.39149   0.53480888     69.11009    38.070242 
 1896000    453.63142   -455.58395   0.52748907   -3.3391009    35.236888 
 1897000    436.57108   -430.44473   0.60080294    4.8850808    39.970364 
 1898000    429.68974   -410.44572   0.60292165    18.033901    30.639691 
 1899000    425.62671   -437.92562   0.72282034   -13.371984    27.560782 
 1900000    398.52288   -415.67134   0.69297659   -18.137015     31.66781 
 1901000    458.93629   -471.10035   0.61700779   -13.483494    14.646701 
 1902000    443.83262   -430.51172   0.60972667    12.057916     20.50094 
 1903000    439.55309   -488.85753   0.59207209   -50.567025    29.769658 
 1904000    476.04542   -463.64782   0.60787719    10.996845     43.01443 
 1905000    426.69759   -429.22951   0.62084549   -3.7114838    16.132926 
 1906000    455.26694   -428.36655   0.49142331    25.470858    21.737848 
 1907000    432.97495   -438.06717   0.66091351   -6.2581995    35.092409 
 1908000    470.23761   -433.47308   0.58831146    35.368715    31.159611 
 1909000    455.91079   -473.63816   0.64490569   -19.006141    26.344997 
 1910000     453.8195   -429.88494   0.64002322     22.65973    25.080925 
 1911000    430.52597    -525.1588   0.57973562   -95.869655    32.961777 
 1912000    449.47736   -450.35781   0.44210338   -2.3348744    17.277524 
 1913000    459.60645   -451.57396   0.56343527    6.6566527    58.233505 
 1914000    429.61512    -430.5292   0.62156629   -2.1052335    23.710626 
 1915000    430.78047   -454.21137   0.76254392   -24.485998    21.072171 
 1916000    451.97472   -458.87776   0.64392749   -8.1661831    29.376808 
 1917000    448.71443   -444.37739   0.65541213    3.0991407    30.263362 
 1918000    452.12652   -437.10865   0.59561813     13.70579    35.692078 
 1919000    427.28575   -439.20724   0.67754146   -13.046844    38.528077 
 1920000    413.32572   -462.24346   0.75093196     -49.9108    37.071877 
 1921000    440.38174   -421.77948   0.61673797    17.360847    33.382613 
 1922000    459.36463    -456.7971   0.49203076     1.121309    47.674393 
 1923000    422.76269   -441.45185   0.53577092   -19.937198    24.468081 
 1924000    459.28188   -451.27722   0.55767635    6.6244325    31.772332 
 1925000    440.87062   -481.45246   0.61741697   -41.824644    48.235614 
 1926000    453.73729   -491.35126   0.57173102   -38.956747    29.956403 
 1927000    375.75066   -458.71951   0.49716525    -84.05713    23.364742 
 1928000    440.83384   -448.60819   0.54666608   -9.0877388    31.860962 
 1929000    466.41557   -421.30119   0.58718066    43.733565    16.033879 
 1930000    445.04646     -416.404   0.69131058     27.45594    60.120406 
 1931000    444.07512   -428.01679   0.47841562    14.663015    30.203578 
 1932000    439.32812   -453.99097   0.53896107   -15.977596     29.58012 
 1933000    439.59396   -414.99552   0.51672896    23.260337    30.166398 
 1934000    439.13458   -403.63081   0.59691838    34.247803    19.481172 
 1935000    430.85134   -405.14837   0.41645198    24.301487    40.334726 
 1936000     405.6877   -461.24139   0.46607272   -56.799385    43.132838 
 1937000    430.66754   -460.58775   0.55608532   -31.181282    14.642952 
 1938000    482.80482   -443.06116   0.73348685    38.439996    30.321188 
 1939000    492.58357   -454.18333   0.58442369    36.906246    35.612731 
 1940000    445.57065   -439.62794   0.39061973     4.453281    44.505381 
 1941000    447.71323   -442.39178   0.56655186    3.9989246    37.538734 
 1942000    445.90567   -475.09522   0.67191602   -30.399094    11.884231 
 1943000    436.49429   -421.45933   0.49750614    13.690721    40.869517 
 1944000    448.05247   -472.95437   0.52081501   -26.271609    16.856171 
 1945000    409.42631   -466.95481   0.74065931   -58.515373    22.751257 
 1946000    471.71745    -443.8747   0.62921145    26.481598    17.648271 
 1947000    445.40361   -454.26175   0.53572099   -10.201754    41.067436 
 1948000    432.19296   -442.81875   0.36352242   -12.085862    19.858983 
 1949000    426.99833   -475.59727   0.57382713   -49.826797    18.526738 
 1950000    463.56293    -500.6293   0.75687541   -38.265451    30.664409 
 1951000    441.10755   -429.84466   0.63505382    10.036724    23.799418 
 1952000    438.49688   -466.31958   0.44180296   -29.231097    31.012195 
 1953000    461.41705   -458.53908    0.5578765    1.4889371    23.752714 
 1954000     472.2356   -422.72168   0.61780654    48.139176    38.046659 
 1955000    441.96809   -443.19942   0.66563669   -2.4305403    36.025391 
 1956000    440.86592    -443.1878   0.53187158   -3.6502072     18.38417 
 1957000    427.32913    -467.7552   0.55533856   -41.673803    36.982165 
 1958000    473.06414    -478.2581   0.62411726   -6.5658954    23.303758 
 1959000    447.05091   -450.95732   0.68104229   -5.1116519    32.865691 
 1960000    451.82118   -436.68423   0.51186978    13.742401    43.025678 
 1961000    440.76349   -486.59864    0.5056562    -47.18926    44.018222 
 1962000    437.33381   -442.80088   0.61329936   -6.6990627    21.078171 
 1963000     481.8654   -435.08719   0.60060692    45.345628    39.967131 
 1964000     450.2233   -453.69399    0.5073114   -4.8630488    6.6315953 
 1965000    456.42766   -455.33835    0.5135609  -0.32298303    21.320481 
 1966000    458.45858   -435.77354   0.61810346    21.368723    27.952449 
 1967000     459.0354    -448.6941   0.63968808    9.0441281    21.773568 
 1968000    469.88321   -434.45027   0.62313156    34.073443    33.153881 
 1969000    418.07463   -421.24605   0.50959169   -4.4258581    43.000899 
 1970000    453.44229     -478.778   0.43696929   -26.811999    38.574891 
 1971000    429.26244   -455.68228   0.56802788   -27.663041    18.852826 
 1972000    444.29647    -458.1915     0.685722   -15.083982    19.279761 
 1973000      467.662   -420.47377   0.79266212    46.007634    21.175556 
 1974000    446.01439   -442.73735   0.66375627    2.0588793    14.687776 
 1975000    461.80764   -471.06216   0.46106368   -10.742012    46.197635 
 1976000    448.09715   -464.59708   0.62883737     -17.7618     23.50878 
 1977000    430.52527   -454.89413   0.60612893   -25.579297    57.865828 
 1978000    458.26164   -453.25315   0.45857341    3.5334675    50.384283 
 1979000    437.60337   -422.72755   0.44736669    13.476762    43.106556 
 1980000    455.92336   -471.55827   0.58400771   -16.974626    4.6810481 
 1981000    401.22767   -454.32566   0.69760456   -54.093332    20.634397 
 1982000    449.40044   -469.74645    0.5346756   -21.707537    24.043557 
 1983000    465.17336   -469.94556   0.57808777   -6.1568678    31.751092 
 1984000    432.76842   -408.76501   0.60941403    22.786802    23.433758 
 1985000    445.43191   -433.82101   0.72138736    10.452829    18.421833 
 1986000    438.47617   -416.57119   0.61919722    20.674059    27.959354 
 1987000    431.26394   -399.98073   0.41520371    29.878743    41.354796 
 1988000    493.19168   -502.15294   0.64614472   -10.396092    19.872984 
 1989000    455.17997   -461.53548   0.64444716   -7.6316548     20.93891 
 1990000    444.14585   -446.81976   0.52122928   -4.0267116    17.460366 
 1991000    478.29493   -447.01648   0.52130674    29.781629    42.592472 
 1992000    429.04574   -439.53899   0.65460855   -11.648961    18.894723 
 1993000    432.34862   -472.64682   0.55339424   -41.569055    38.007665 
 1994000    440.20874   -459.20818   0.53609315   -20.320763    21.810721 
 1995000    467.44141   -427.72173   0.57472541    38.322078    24.311085 
 1996000    411.85363   -449.63159   0.71281679   -38.802916    29.565312 
 1997000     445.8587   -438.88304   0.62324339    5.7176485    38.766606 
 1998000    423.25715    -463.4189   0.55843741    -41.38921    29.465488 
 1999000    450.56577    -480.4784   0.48810375   -31.325641    35.640175 
 2000000    448.24125   -472.88958   0.61226652   -25.927378    30.753589 
Loop time of 115.47 on 6 procs for 2000000 steps with 237 atoms

Performance: 1496495.410 tau/day, 17320.549 timesteps/s
99.0% CPU use with 6 MPI tasks x no OpenMP threads

MPI task timing breakdown:
Section |  min time  |  avg time  |  max time  |%varavg| %total
---------------------------------------------------------------
Pair    | 49.745     | 50.078     | 50.701     |   5.0 | 43.37
Bond    | 0.1803     | 1.1252     | 3.9766     | 128.6 |  0.97
Neigh   | 11.909     | 12.364     | 12.72      |   7.8 | 10.71
Comm    | 17.201     | 18.218     | 19.374     |  14.8 | 15.78
Output  | 0.11036    | 0.12002    | 0.14232    |   3.0 |  0.10
Modify  | 10.98      | 11.292     | 12.107     |  11.7 |  9.78
Other   |            | 22.27      |            |       | 19.29

Nlocal:    39.5 ave 59 max 30 min
Histogram: 1 1 2 1 0 0 0 0 0 1
Nghost:    41.5 ave 50 max 33 min
Histogram: 1 1 0 0 1 1 0 0 1 1
Neighs:    0 ave 0 max 0 min
Histogram: 6 0 0 0 0 0 0 0 0 0

Total # of neighbors = 0
Ave neighs/atom = 0
Ave special neighs/atom = 0.708861
Neighbor list builds = 490956
Dangerous builds = 0
WARNING: One or more atoms are time integrated more than once (../modify.cpp:279)
Neighbor list info ...
  update every 1 steps, delay 0 steps, check yes
  max neighbors/atom: 2000, page size: 100000
  master list distance cutoff = 5.3
  ghost atom cutoff = 5.3
  binsize = 2.65, bins = 27 27 1
  3 neighbor lists, perpetual/occasional/extra = 3 0 0
  (1) pair lj/cut, perpetual, skip from (3)
      attributes: half, newton off
      pair build: skip
      stencil: none
      bin: none
  (2) pair gayberne, perpetual, skip from (3)
      attributes: half, newton off
      pair build: skip
      stencil: none
      bin: none
  (3) neighbor class addition, perpetual
      attributes: half, newton off
      pair build: half/bin/newtoff
      stencil: half/bin/2d/newtoff
      bin: standard

Please see the log.cite file for references relevant to this simulation

Total wall time: 0:02:00
