ITEM: TIMESTEP
0
ITEM: NUMBER OF ATOMS
446
ITEM: BOX BOUNDS pp pp pp
0.0000000000000000e+00 2.1000000000000000e+02
0.0000000000000000e+00 2.1000000000000000e+02
-5.0000000000000000e-01 5.0000000000000000e-01
ITEM: ATOMS id type x y z c_orient[1] c_orient[2] c_orient[3] c_orient[4] c_shape[1] c_shape[2] c_shape[3] 
1 1 104.667 107.69 0 0 0 0 1 0.5 0.5 0.5 
2 1 105.198 106.784 0 0 0 0 1 0.5 0.5 0.5 
3 1 105.735 105.882 0 0 0 0 1 0.5 0.5 0.5 
4 1 106.279 104.985 0 0 0 0 1 0.5 0.5 0.5 
5 1 106.833 104.093 0 0 0 0 1 0.5 0.5 0.5 
6 1 107.39 103.204 0 0 0 0 1 0.5 0.5 0.5 
7 1 107.947 102.316 0 0 0 0 1 0.5 0.5 0.5 
8 1 108.504 101.426 0 0 0 0 1 0.5 0.5 0.5 
9 1 109.053 100.532 0 0 0 0 1 0.5 0.5 0.5 
10 1 109.591 99.6303 0 0 0 0 1 0.5 0.5 0.5 
11 1 110.115 98.7203 0 0 0 0 1 0.5 0.5 0.5 
12 1 110.632 97.8057 0 0 0 0 1 0.5 0.5 0.5 
13 1 111.143 96.889 0 0 0 0 1 0.5 0.5 0.5 
14 1 111.655 95.9718 0 0 0 0 1 0.5 0.5 0.5 
15 1 112.169 95.0563 0 0 0 0 1 0.5 0.5 0.5 
16 1 112.692 94.1464 0 0 0 0 1 0.5 0.5 0.5 
17 1 113.227 93.2434 0 0 0 0 1 0.5 0.5 0.5 
18 1 113.778 92.3493 0 0 0 0 1 0.5 0.5 0.5 
19 1 114.344 91.4659 0 0 0 0 1 0.5 0.5 0.5 
20 1 114.925 90.5925 0 0 0 0 1 0.5 0.5 0.5 
21 1 115.519 89.7278 0 0 0 0 1 0.5 0.5 0.5 
22 1 116.125 88.8704 0 0 0 0 1 0.5 0.5 0.5 
23 1 116.742 88.0223 0 0 0 0 1 0.5 0.5 0.5 
24 1 117.373 87.1841 0 0 0 0 1 0.5 0.5 0.5 
25 1 118.017 86.3549 0 0 0 0 1 0.5 0.5 0.5 
26 1 118.666 85.5304 0 0 0 0 1 0.5 0.5 0.5 
27 1 119.318 84.7078 0 0 0 0 1 0.5 0.5 0.5 
28 1 119.971 83.8854 0 0 0 0 1 0.5 0.5 0.5 
29 1 120.625 83.0636 0 0 0 0 1 0.5 0.5 0.5 
30 2 121.277 82.241 0 0 0 0 1 0.5 0.5 0.5 
31 3 0 0 0 0 0 0.828817 0.559519 1.35 1.1 1.1 
32 3 10 0 0 0 0 0.0478674 -0.998854 1.35 1.1 1.1 
33 3 20 0 0 0 0 0.829131 -0.559054 1.35 1.1 1.1 
34 3 30 0 0 0 0 0.733086 -0.680136 1.35 1.1 1.1 
35 3 40 0 0 0 0 0.829757 0.558125 1.35 1.1 1.1 
36 3 50 0 0 0 0 0.873301 -0.487181 1.35 1.1 1.1 
37 3 60 0 0 0 0 0.99869 0.051172 1.35 1.1 1.1 
38 3 70 0 0 0 0 0.336 -0.941862 1.35 1.1 1.1 
39 3 80 0 0 0 0 0.734724 0.678366 1.35 1.1 1.1 
40 3 90 0 0 0 0 0.958032 -0.286661 1.35 1.1 1.1 
41 3 100 0 0 0 0 0.821274 0.570534 1.35 1.1 1.1 
42 3 110 0 0 0 0 0.998257 0.0590173 1.35 1.1 1.1 
43 3 120 0 0 0 0 0.968899 0.247457 1.35 1.1 1.1 
44 3 130 0 0 0 0 0.260316 0.965524 1.35 1.1 1.1 
45 3 140 0 0 0 0 0.974048 0.22634 1.35 1.1 1.1 
46 3 150 0 0 0 0 0.239091 0.970997 1.35 1.1 1.1 
47 3 160 0 0 0 0 0.850348 -0.526221 1.35 1.1 1.1 
48 3 170 0 0 0 0 0.0569351 -0.998378 1.35 1.1 1.1 
49 3 180 0 0 0 0 0.357088 -0.934071 1.35 1.1 1.1 
50 3 190 0 0 0 0 0.796319 0.604877 1.35 1.1 1.1 
51 3 200 0 0 0 0 0.967595 0.252508 1.35 1.1 1.1 
52 3 0 10 0 0 0 0.957052 -0.289915 1.35 1.1 1.1 
53 3 10 10 0 0 0 0.882225 0.470829 1.35 1.1 1.1 
54 3 20 10 0 0 0 0.184398 -0.982852 1.35 1.1 1.1 
55 3 30 10 0 0 0 0.335649 -0.941987 1.35 1.1 1.1 
56 3 40 10 0 0 0 0.607682 -0.794181 1.35 1.1 1.1 
57 3 50 10 0 0 0 0.557102 -0.830444 1.35 1.1 1.1 
58 3 60 10 0 0 0 0.0282786 0.9996 1.35 1.1 1.1 
59 3 70 10 0 0 0 0.975314 -0.220823 1.35 1.1 1.1 
60 3 80 10 0 0 0 0.891255 0.453502 1.35 1.1 1.1 
61 3 90 10 0 0 0 0.390707 0.920515 1.35 1.1 1.1 
62 3 100 10 0 0 0 0.999247 0.0387984 1.35 1.1 1.1 
63 3 110 10 0 0 0 0.0904849 0.995898 1.35 1.1 1.1 
64 3 120 10 0 0 0 0.957377 0.288842 1.35 1.1 1.1 
65 3 130 10 0 0 0 0.246071 0.969252 1.35 1.1 1.1 
66 3 140 10 0 0 0 0.0822334 0.996613 1.35 1.1 1.1 
67 3 150 10 0 0 0 0.429881 -0.902885 1.35 1.1 1.1 
68 3 160 10 0 0 0 0.0323012 0.999478 1.35 1.1 1.1 
69 3 170 10 0 0 0 0.617617 0.786479 1.35 1.1 1.1 
70 3 180 10 0 0 0 0.430946 -0.902378 1.35 1.1 1.1 
71 3 190 10 0 0 0 0.939649 0.34214 1.35 1.1 1.1 
72 3 200 10 0 0 0 0.238077 -0.971246 1.35 1.1 1.1 
73 3 0 20 0 0 0 0.722553 -0.691315 1.35 1.1 1.1 
74 3 10 20 0 0 0 0.817282 -0.576239 1.35 1.1 1.1 
75 3 20 20 0 0 0 0.843574 0.537013 1.35 1.1 1.1 
76 3 30 20 0 0 0 0.999834 0.0182403 1.35 1.1 1.1 
77 3 40 20 0 0 0 0.923445 0.383732 1.35 1.1 1.1 
78 3 50 20 0 0 0 0.955438 -0.295193 1.35 1.1 1.1 
79 3 60 20 0 0 0 0.947376 -0.320122 1.35 1.1 1.1 
80 3 70 20 0 0 0 0.713209 -0.700952 1.35 1.1 1.1 
81 3 80 20 0 0 0 0.280278 -0.959919 1.35 1.1 1.1 
82 3 90 20 0 0 0 0.698224 -0.715879 1.35 1.1 1.1 
83 3 100 20 0 0 0 0.962066 0.272816 1.35 1.1 1.1 
84 3 110 20 0 0 0 0.577455 0.816422 1.35 1.1 1.1 
85 3 120 20 0 0 0 0.210664 -0.977559 1.35 1.1 1.1 
86 3 130 20 0 0 0 0.920016 -0.391882 1.35 1.1 1.1 
87 3 140 20 0 0 0 0.999939 0.0110473 1.35 1.1 1.1 
88 3 150 20 0 0 0 0.719264 0.694737 1.35 1.1 1.1 
89 3 160 20 0 0 0 0.979014 -0.203792 1.35 1.1 1.1 
90 3 170 20 0 0 0 0.942739 0.33353 1.35 1.1 1.1 
91 3 180 20 0 0 0 0.975123 -0.221666 1.35 1.1 1.1 
92 3 190 20 0 0 0 0.958794 -0.284103 1.35 1.1 1.1 
93 3 200 20 0 0 0 0.859598 -0.510971 1.35 1.1 1.1 
94 3 0 30 0 0 0 0.554891 0.831923 1.35 1.1 1.1 
95 3 10 30 0 0 0 0.256524 0.966538 1.35 1.1 1.1 
96 3 20 30 0 0 0 0.975007 0.222173 1.35 1.1 1.1 
97 3 30 30 0 0 0 0.426543 0.904467 1.35 1.1 1.1 
98 3 40 30 0 0 0 0.98888 0.148715 1.35 1.1 1.1 
99 3 50 30 0 0 0 0.798494 -0.602002 1.35 1.1 1.1 
100 3 60 30 0 0 0 0.456465 0.889741 1.35 1.1 1.1 
101 3 70 30 0 0 0 0.588985 0.808144 1.35 1.1 1.1 
102 3 80 30 0 0 0 0.862669 0.505769 1.35 1.1 1.1 
103 3 90 30 0 0 0 0.957483 -0.288489 1.35 1.1 1.1 
104 3 100 30 0 0 0 0.130306 -0.991474 1.35 1.1 1.1 
105 3 110 30 0 0 0 0.543721 0.839266 1.35 1.1 1.1 
106 3 120 30 0 0 0 0.995216 0.097703 1.35 1.1 1.1 
107 3 130 30 0 0 0 0.459146 0.888361 1.35 1.1 1.1 
108 3 140 30 0 0 0 0.590732 -0.806868 1.35 1.1 1.1 
109 3 150 30 0 0 0 0.22222 -0.974996 1.35 1.1 1.1 
110 3 160 30 0 0 0 0.583927 0.811806 1.35 1.1 1.1 
111 3 170 30 0 0 0 0.857216 -0.514957 1.35 1.1 1.1 
112 3 180 30 0 0 0 0.977203 0.212308 1.35 1.1 1.1 
113 3 190 30 0 0 0 0.652817 0.757515 1.35 1.1 1.1 
114 3 200 30 0 0 0 0.846639 -0.532168 1.35 1.1 1.1 
115 3 0 40 0 0 0 0.490668 0.871347 1.35 1.1 1.1 
116 3 10 40 0 0 0 0.30855 0.951208 1.35 1.1 1.1 
117 3 20 40 0 0 0 0.577627 -0.816301 1.35 1.1 1.1 
118 3 30 40 0 0 0 0.823797 0.566885 1.35 1.1 1.1 
119 3 40 40 0 0 0 0.801854 -0.59752 1.35 1.1 1.1 
120 3 50 40 0 0 0 0.372451 0.928052 1.35 1.1 1.1 
121 3 60 40 0 0 0 0.925818 0.37797 1.35 1.1 1.1 
122 3 70 40 0 0 0 0.781688 0.62367 1.35 1.1 1.1 
123 3 80 40 0 0 0 0.384813 -0.922995 1.35 1.1 1.1 
124 3 90 40 0 0 0 0.129478 -0.991582 1.35 1.1 1.1 
125 3 100 40 0 0 0 0.975709 -0.219071 1.35 1.1 1.1 
126 3 110 40 0 0 0 0.983048 -0.183346 1.35 1.1 1.1 
127 3 120 40 0 0 0 0.677862 -0.735189 1.35 1.1 1.1 
128 3 130 40 0 0 0 0.780439 -0.625232 1.35 1.1 1.1 
129 3 140 40 0 0 0 0.311649 -0.950197 1.35 1.1 1.1 
130 3 150 40 0 0 0 0.841857 -0.5397 1.35 1.1 1.1 
131 3 160 40 0 0 0 0.207519 -0.978231 1.35 1.1 1.1 
132 3 170 40 0 0 0 0.724791 0.688968 1.35 1.1 1.1 
133 3 180 40 0 0 0 0.968129 0.250452 1.35 1.1 1.1 
134 3 190 40 0 0 0 0.635679 0.771954 1.35 1.1 1.1 
135 3 200 40 0 0 0 0.903814 -0.427925 1.35 1.1 1.1 
136 3 0 50 0 0 0 0.58667 -0.809826 1.35 1.1 1.1 
137 3 10 50 0 0 0 0.641498 -0.767124 1.35 1.1 1.1 
138 3 20 50 0 0 0 0.244244 -0.969714 1.35 1.1 1.1 
139 3 30 50 0 0 0 0.185937 0.982562 1.35 1.1 1.1 
140 3 40 50 0 0 0 0.286744 -0.958007 1.35 1.1 1.1 
141 3 50 50 0 0 0 0.0259667 0.999663 1.35 1.1 1.1 
142 3 60 50 0 0 0 0.353924 -0.935274 1.35 1.1 1.1 
143 3 70 50 0 0 0 0.98606 -0.166391 1.35 1.1 1.1 
144 3 80 50 0 0 0 0.72911 0.684397 1.35 1.1 1.1 
145 3 90 50 0 0 0 0.99844 0.0558408 1.35 1.1 1.1 
146 3 100 50 0 0 0 0.345212 0.938525 1.35 1.1 1.1 
147 3 110 50 0 0 0 0.998228 -0.05951 1.35 1.1 1.1 
148 3 120 50 0 0 0 0.947139 0.320823 1.35 1.1 1.1 
149 3 130 50 0 0 0 0.609004 0.793167 1.35 1.1 1.1 
150 3 140 50 0 0 0 0.163869 -0.986482 1.35 1.1 1.1 
151 3 150 50 0 0 0 0.86157 0.507639 1.35 1.1 1.1 
152 3 160 50 0 0 0 0.678882 0.734247 1.35 1.1 1.1 
153 3 170 50 0 0 0 0.880247 -0.474515 1.35 1.1 1.1 
154 3 180 50 0 0 0 0.480809 -0.876826 1.35 1.1 1.1 
155 3 190 50 0 0 0 0.604791 0.796384 1.35 1.1 1.1 
156 3 200 50 0 0 0 0.20501 -0.97876 1.35 1.1 1.1 
157 3 0 60 0 0 0 0.545805 -0.837912 1.35 1.1 1.1 
158 3 10 60 0 0 0 0.212141 0.977239 1.35 1.1 1.1 
159 3 20 60 0 0 0 0.0749451 -0.997188 1.35 1.1 1.1 
160 3 30 60 0 0 0 0.365665 -0.930746 1.35 1.1 1.1 
161 3 40 60 0 0 0 0.0187965 -0.999823 1.35 1.1 1.1 
162 3 50 60 0 0 0 0.618478 -0.785802 1.35 1.1 1.1 
163 3 60 60 0 0 0 0.195859 -0.980632 1.35 1.1 1.1 
164 3 70 60 0 0 0 0.996022 0.0891077 1.35 1.1 1.1 
165 3 80 60 0 0 0 0.896 0.444053 1.35 1.1 1.1 
166 3 90 60 0 0 0 0.17198 -0.9851 1.35 1.1 1.1 
167 3 100 60 0 0 0 0.468304 -0.883567 1.35 1.1 1.1 
168 3 110 60 0 0 0 0.937607 -0.347697 1.35 1.1 1.1 
169 3 120 60 0 0 0 0.659257 -0.751918 1.35 1.1 1.1 
170 3 130 60 0 0 0 0.968583 -0.248692 1.35 1.1 1.1 
171 3 140 60 0 0 0 0.305069 -0.95233 1.35 1.1 1.1 
172 3 150 60 0 0 0 0.63289 -0.774242 1.35 1.1 1.1 
173 3 160 60 0 0 0 0.98768 -0.156487 1.35 1.1 1.1 
174 3 170 60 0 0 0 0.936648 0.350271 1.35 1.1 1.1 
175 3 180 60 0 0 0 0.597203 0.80209 1.35 1.1 1.1 
176 3 190 60 0 0 0 0.76912 0.639105 1.35 1.1 1.1 
177 3 200 60 0 0 0 0.951203 -0.308567 1.35 1.1 1.1 
178 3 0 70 0 0 0 0.95979 -0.280718 1.35 1.1 1.1 
179 3 10 70 0 0 0 0.377418 -0.926043 1.35 1.1 1.1 
180 3 20 70 0 0 0 0.371883 0.92828 1.35 1.1 1.1 
181 3 30 70 0 0 0 0.613755 0.789497 1.35 1.1 1.1 
182 3 40 70 0 0 0 0.383817 0.923409 1.35 1.1 1.1 
183 3 50 70 0 0 0 0.289657 -0.95713 1.35 1.1 1.1 
184 3 60 70 0 0 0 0.54948 -0.835507 1.35 1.1 1.1 
185 3 70 70 0 0 0 0.998919 -0.0464743 1.35 1.1 1.1 
186 3 80 70 0 0 0 0.906975 -0.421183 1.35 1.1 1.1 
187 3 90 70 0 0 0 0.998333 0.0577223 1.35 1.1 1.1 
188 3 100 70 0 0 0 0.155015 0.987912 1.35 1.1 1.1 
189 3 110 70 0 0 0 0.80778 0.589484 1.35 1.1 1.1 
190 3 120 70 0 0 0 0.884299 -0.466921 1.35 1.1 1.1 
191 3 130 70 0 0 0 0.952904 0.303271 1.35 1.1 1.1 
192 3 140 70 0 0 0 0.339773 0.940507 1.35 1.1 1.1 
193 3 150 70 0 0 0 0.654076 -0.756429 1.35 1.1 1.1 
194 3 160 70 0 0 0 0.828628 -0.559799 1.35 1.1 1.1 
195 3 170 70 0 0 0 0.0302135 -0.999543 1.35 1.1 1.1 
196 3 180 70 0 0 0 0.971738 0.236061 1.35 1.1 1.1 
197 3 190 70 0 0 0 0.225338 0.974281 1.35 1.1 1.1 
198 3 200 70 0 0 0 0.946966 -0.321335 1.35 1.1 1.1 
199 3 0 80 0 0 0 0.903485 0.42862 1.35 1.1 1.1 
200 3 10 80 0 0 0 0.912257 0.409619 1.35 1.1 1.1 
201 3 20 80 0 0 0 0.604834 0.796352 1.35 1.1 1.1 
202 3 30 80 0 0 0 0.447434 -0.894317 1.35 1.1 1.1 
203 3 40 80 0 0 0 0.687096 -0.726566 1.35 1.1 1.1 
204 3 50 80 0 0 0 0.857741 -0.514082 1.35 1.1 1.1 
205 3 60 80 0 0 0 0.482978 0.875633 1.35 1.1 1.1 
206 3 70 80 0 0 0 0.963137 -0.269012 1.35 1.1 1.1 
207 3 80 80 0 0 0 0.169134 0.985593 1.35 1.1 1.1 
208 3 90 80 0 0 0 0.283307 -0.959029 1.35 1.1 1.1 
209 3 100 80 0 0 0 0.294084 0.95578 1.35 1.1 1.1 
210 3 110 80 0 0 0 0.999916 0.0129336 1.35 1.1 1.1 
211 3 119.117 81.3793 0 0 0 0.135378 0.990794 1.35 1.1 1.1 
212 3 130 80 0 0 0 0.191781 0.981438 1.35 1.1 1.1 
213 3 140 80 0 0 0 0.804719 0.593656 1.35 1.1 1.1 
214 3 150 80 0 0 0 0.820144 -0.572158 1.35 1.1 1.1 
215 3 160 80 0 0 0 0.748226 -0.663444 1.35 1.1 1.1 
216 3 170 80 0 0 0 0.17443 -0.98467 1.35 1.1 1.1 
217 3 180 80 0 0 0 0.58696 0.809616 1.35 1.1 1.1 
218 3 190 80 0 0 0 0.545544 0.838082 1.35 1.1 1.1 
219 3 200 80 0 0 0 0.944373 0.328875 1.35 1.1 1.1 
220 3 0 90 0 0 0 0.984232 0.176884 1.35 1.1 1.1 
221 3 10 90 0 0 0 0.119809 0.992797 1.35 1.1 1.1 
222 3 20 90 0 0 0 0.0206193 -0.999787 1.35 1.1 1.1 
223 3 30 90 0 0 0 0.855063 0.518524 1.35 1.1 1.1 
224 3 40 90 0 0 0 0.0557373 -0.998445 1.35 1.1 1.1 
225 3 50 90 0 0 0 0.566345 0.824168 1.35 1.1 1.1 
226 3 60 90 0 0 0 0.536019 0.844206 1.35 1.1 1.1 
227 3 70 90 0 0 0 0.367611 -0.92998 1.35 1.1 1.1 
228 3 80 90 0 0 0 0.346757 -0.937955 1.35 1.1 1.1 
229 3 90 90 0 0 0 0.463451 -0.886123 1.35 1.1 1.1 
230 3 100 90 0 0 0 0.677931 0.735125 1.35 1.1 1.1 
231 3 111.779 91.0654 0 0 0 0.959001 -0.283402 1.35 1.1 1.1 
232 3 118.518 89.0261 0 0 0 0.647332 0.762208 1.35 1.1 1.1 
233 3 130 90 0 0 0 0.708085 0.706127 1.35 1.1 1.1 
234 3 140 90 0 0 0 0.200471 -0.9797 1.35 1.1 1.1 
235 3 150 90 0 0 0 0.936229 0.35139 1.35 1.1 1.1 
236 3 160 90 0 0 0 0.438864 -0.898553 1.35 1.1 1.1 
237 3 170 90 0 0 0 0.13146 0.991322 1.35 1.1 1.1 
238 3 180 90 0 0 0 0.694602 0.719394 1.35 1.1 1.1 
239 3 190 90 0 0 0 0.100239 -0.994963 1.35 1.1 1.1 
240 3 200 90 0 0 0 0.497064 0.867714 1.35 1.1 1.1 
241 3 0 100 0 0 0 0.114786 0.99339 1.35 1.1 1.1 
242 3 10 100 0 0 0 0.500113 -0.86596 1.35 1.1 1.1 
243 3 20 100 0 0 0 0.481504 -0.876444 1.35 1.1 1.1 
244 3 30 100 0 0 0 0.455405 -0.890284 1.35 1.1 1.1 
245 3 40 100 0 0 0 0.927785 0.373116 1.35 1.1 1.1 
246 3 50 100 0 0 0 0.0448028 -0.998996 1.35 1.1 1.1 
247 3 60 100 0 0 0 0.434428 0.900706 1.35 1.1 1.1 
248 3 70 100 0 0 0 0.0986306 0.995124 1.35 1.1 1.1 
249 3 80 100 0 0 0 0.269346 0.963044 1.35 1.1 1.1 
250 3 90 100 0 0 0 0.392127 -0.919911 1.35 1.1 1.1 
251 3 100 100 0 0 0 0.978354 -0.20694 1.35 1.1 1.1 
252 3 107.563 99.1726 0 0 0 0.521479 -0.853264 1.35 1.1 1.1 
253 3 120 100 0 0 0 0.879699 0.475531 1.35 1.1 1.1 
254 3 130 100 0 0 0 0.557992 -0.829846 1.35 1.1 1.1 
255 3 140 100 0 0 0 0.0905211 -0.995895 1.35 1.1 1.1 
256 3 150 100 0 0 0 0.770373 -0.637594 1.35 1.1 1.1 
257 3 160 100 0 0 0 0.277024 0.960863 1.35 1.1 1.1 
258 3 170 100 0 0 0 0.500606 -0.865675 1.35 1.1 1.1 
259 3 180 100 0 0 0 0.598997 -0.800751 1.35 1.1 1.1 
260 3 190 100 0 0 0 0.926621 -0.375998 1.35 1.1 1.1 
261 3 200 100 0 0 0 0.675475 0.737383 1.35 1.1 1.1 
262 3 0 110 0 0 0 0.987184 -0.159584 1.35 1.1 1.1 
263 3 10 110 0 0 0 0.0769326 -0.997036 1.35 1.1 1.1 
264 3 20 110 0 0 0 0.603328 -0.797493 1.35 1.1 1.1 
265 3 30 110 0 0 0 0.997184 -0.0749936 1.35 1.1 1.1 
266 3 40 110 0 0 0 0.757201 -0.653181 1.35 1.1 1.1 
267 3 50 110 0 0 0 0.999915 -0.0130562 1.35 1.1 1.1 
268 3 60 110 0 0 0 0.0543952 -0.998519 1.35 1.1 1.1 
269 3 70 110 0 0 0 0.355298 -0.934753 1.35 1.1 1.1 
270 3 80 110 0 0 0 0.47063 -0.882331 1.35 1.1 1.1 
271 3 90 110 0 0 0 0.287397 -0.957812 1.35 1.1 1.1 
272 3 100 110 0 0 0 0.999616 -0.0277048 1.35 1.1 1.1 
273 3 110 110 0 0 0 0.712498 0.701674 1.35 1.1 1.1 
274 3 120 110 0 0 0 0.847955 0.530067 1.35 1.1 1.1 
275 3 130 110 0 0 0 0.48323 0.875494 1.35 1.1 1.1 
276 3 140 110 0 0 0 0.352315 -0.935882 1.35 1.1 1.1 
277 3 150 110 0 0 0 0.999398 0.0346799 1.35 1.1 1.1 
278 3 160 110 0 0 0 0.416802 -0.908997 1.35 1.1 1.1 
279 3 170 110 0 0 0 0.884842 -0.465892 1.35 1.1 1.1 
280 3 180 110 0 0 0 0.999975 0.00706333 1.35 1.1 1.1 
281 3 190 110 0 0 0 0.0171406 0.999853 1.35 1.1 1.1 
282 3 200 110 0 0 0 0.313269 -0.949664 1.35 1.1 1.1 
283 3 0 120 0 0 0 0.975434 -0.22029 1.35 1.1 1.1 
284 3 10 120 0 0 0 0.054014 -0.99854 1.35 1.1 1.1 
285 3 20 120 0 0 0 0.731559 -0.681778 1.35 1.1 1.1 
286 3 30 120 0 0 0 0.0135634 -0.999908 1.35 1.1 1.1 
287 3 40 120 0 0 0 0.0553206 0.998469 1.35 1.1 1.1 
288 3 50 120 0 0 0 0.693466 0.720489 1.35 1.1 1.1 
289 3 60 120 0 0 0 0.957876 -0.287183 1.35 1.1 1.1 
290 3 70 120 0 0 0 0.969471 -0.245206 1.35 1.1 1.1 
291 3 80 120 0 0 0 0.0362562 -0.999343 1.35 1.1 1.1 
292 3 90 120 0 0 0 0.0544436 0.998517 1.35 1.1 1.1 
293 3 100 120 0 0 0 0.559671 0.828715 1.35 1.1 1.1 
294 3 110 120 0 0 0 0.832482 -0.554052 1.35 1.1 1.1 
295 3 120 120 0 0 0 0.637168 0.770725 1.35 1.1 1.1 
296 3 130 120 0 0 0 0.54293 0.839778 1.35 1.1 1.1 
297 3 140 120 0 0 0 0.208281 0.978069 1.35 1.1 1.1 
298 3 150 120 0 0 0 0.380175 -0.924914 1.35 1.1 1.1 
299 3 160 120 0 0 0 0.350378 -0.936608 1.35 1.1 1.1 
300 3 170 120 0 0 0 0.442679 -0.89668 1.35 1.1 1.1 
301 3 180 120 0 0 0 0.178179 -0.983998 1.35 1.1 1.1 
302 3 190 120 0 0 0 0.695424 0.7186 1.35 1.1 1.1 
303 3 200 120 0 0 0 0.802415 0.596766 1.35 1.1 1.1 
304 3 0 130 0 0 0 0.962394 0.271658 1.35 1.1 1.1 
305 3 10 130 0 0 0 0.0963864 0.995344 1.35 1.1 1.1 
306 3 20 130 0 0 0 0.850398 -0.52614 1.35 1.1 1.1 
307 3 30 130 0 0 0 0.135571 -0.990768 1.35 1.1 1.1 
308 3 40 130 0 0 0 0.994283 -0.106776 1.35 1.1 1.1 
309 3 50 130 0 0 0 0.920954 -0.389671 1.35 1.1 1.1 
310 3 60 130 0 0 0 0.911259 -0.411833 1.35 1.1 1.1 
311 3 70 130 0 0 0 0.334209 -0.942499 1.35 1.1 1.1 
312 3 80 130 0 0 0 0.709474 0.704732 1.35 1.1 1.1 
313 3 90 130 0 0 0 0.0436868 0.999045 1.35 1.1 1.1 
314 3 100 130 0 0 0 0.906865 -0.421421 1.35 1.1 1.1 
315 3 110 130 0 0 0 0.488071 -0.872804 1.35 1.1 1.1 
316 3 120 130 0 0 0 0.947792 0.31889 1.35 1.1 1.1 
317 3 130 130 0 0 0 0.888336 0.459194 1.35 1.1 1.1 
318 3 140 130 0 0 0 0.532901 0.846178 1.35 1.1 1.1 
319 3 150 130 0 0 0 0.686598 -0.727037 1.35 1.1 1.1 
320 3 160 130 0 0 0 0.880206 0.474591 1.35 1.1 1.1 
321 3 170 130 0 0 0 0.979765 0.200151 1.35 1.1 1.1 
322 3 180 130 0 0 0 0.99735 -0.0727494 1.35 1.1 1.1 
323 3 190 130 0 0 0 0.65108 0.759009 1.35 1.1 1.1 
324 3 200 130 0 0 0 0.964599 0.26372 1.35 1.1 1.1 
325 3 0 140 0 0 0 0.949028 -0.315193 1.35 1.1 1.1 
326 3 10 140 0 0 0 0.975975 0.217881 1.35 1.1 1.1 
327 3 20 140 0 0 0 0.775955 -0.630788 1.35 1.1 1.1 
328 3 30 140 0 0 0 0.755139 -0.655565 1.35 1.1 1.1 
329 3 40 140 0 0 0 0.961595 0.274472 1.35 1.1 1.1 
330 3 50 140 0 0 0 0.00145321 -0.999999 1.35 1.1 1.1 
331 3 60 140 0 0 0 0.150412 0.988623 1.35 1.1 1.1 
332 3 70 140 0 0 0 0.348202 0.93742 1.35 1.1 1.1 
333 3 80 140 0 0 0 0.086689 -0.996235 1.35 1.1 1.1 
334 3 90 140 0 0 0 0.542109 -0.840308 1.35 1.1 1.1 
335 3 100 140 0 0 0 0.999214 -0.039629 1.35 1.1 1.1 
336 3 110 140 0 0 0 0.476551 -0.879147 1.35 1.1 1.1 
337 3 120 140 0 0 0 0.978435 0.206554 1.35 1.1 1.1 
338 3 130 140 0 0 0 0.385714 0.922618 1.35 1.1 1.1 
339 3 140 140 0 0 0 0.680391 0.732849 1.35 1.1 1.1 
340 3 150 140 0 0 0 0.163088 -0.986612 1.35 1.1 1.1 
341 3 160 140 0 0 0 0.925452 0.378864 1.35 1.1 1.1 
342 3 170 140 0 0 0 0.525766 -0.850629 1.35 1.1 1.1 
343 3 180 140 0 0 0 0.838615 -0.544725 1.35 1.1 1.1 
344 3 190 140 0 0 0 0.622758 -0.782414 1.35 1.1 1.1 
345 3 200 140 0 0 0 0.0561897 0.99842 1.35 1.1 1.1 
346 3 0 150 0 0 0 0.297465 0.954733 1.35 1.1 1.1 
347 3 10 150 0 0 0 0.949912 0.312517 1.35 1.1 1.1 
348 3 20 150 0 0 0 0.999083 -0.0428088 1.35 1.1 1.1 
349 3 30 150 0 0 0 0.788291 -0.615303 1.35 1.1 1.1 
350 3 40 150 0 0 0 0.0554633 0.998461 1.35 1.1 1.1 
351 3 50 150 0 0 0 0.935015 0.354609 1.35 1.1 1.1 
352 3 60 150 0 0 0 0.927409 0.374049 1.35 1.1 1.1 
353 3 70 150 0 0 0 0.0538999 0.998546 1.35 1.1 1.1 
354 3 80 150 0 0 0 0.770417 -0.637541 1.35 1.1 1.1 
355 3 90 150 0 0 0 0.327858 0.944727 1.35 1.1 1.1 
356 3 100 150 0 0 0 0.124201 -0.992257 1.35 1.1 1.1 
357 3 110 150 0 0 0 0.487681 0.873022 1.35 1.1 1.1 
358 3 120 150 0 0 0 0.346982 -0.937872 1.35 1.1 1.1 
359 3 130 150 0 0 0 0.99541 0.0957036 1.35 1.1 1.1 
360 3 140 150 0 0 0 0.434312 -0.900762 1.35 1.1 1.1 
361 3 150 150 0 0 0 0.930782 0.365574 1.35 1.1 1.1 
362 3 160 150 0 0 0 0.933323 -0.359038 1.35 1.1 1.1 
363 3 170 150 0 0 0 0.880889 0.473324 1.35 1.1 1.1 
364 3 180 150 0 0 0 0.959992 0.280028 1.35 1.1 1.1 
365 3 190 150 0 0 0 0.169582 -0.985516 1.35 1.1 1.1 
366 3 200 150 0 0 0 0.611416 0.79131 1.35 1.1 1.1 
367 3 0 160 0 0 0 0.81847 0.574549 1.35 1.1 1.1 
368 3 10 160 0 0 0 0.723221 0.690617 1.35 1.1 1.1 
369 3 20 160 0 0 0 0.938723 0.344672 1.35 1.1 1.1 
370 3 30 160 0 0 0 0.92051 0.39072 1.35 1.1 1.1 
371 3 40 160 0 0 0 0.831701 0.555223 1.35 1.1 1.1 
372 3 50 160 0 0 0 0.749983 -0.661457 1.35 1.1 1.1 
373 3 60 160 0 0 0 0.576831 0.816864 1.35 1.1 1.1 
374 3 70 160 0 0 0 0.525163 0.851002 1.35 1.1 1.1 
375 3 80 160 0 0 0 0.69376 -0.720206 1.35 1.1 1.1 
376 3 90 160 0 0 0 0.799266 0.600977 1.35 1.1 1.1 
377 3 100 160 0 0 0 0.402693 -0.915335 1.35 1.1 1.1 
378 3 110 160 0 0 0 0.514626 -0.857415 1.35 1.1 1.1 
379 3 120 160 0 0 0 0.202721 -0.979237 1.35 1.1 1.1 
380 3 130 160 0 0 0 0.109746 0.99396 1.35 1.1 1.1 
381 3 140 160 0 0 0 0.931207 0.36449 1.35 1.1 1.1 
382 3 150 160 0 0 0 0.959153 -0.282886 1.35 1.1 1.1 
383 3 160 160 0 0 0 0.830324 0.55728 1.35 1.1 1.1 
384 3 170 160 0 0 0 0.103901 0.994588 1.35 1.1 1.1 
385 3 180 160 0 0 0 0.90386 0.427828 1.35 1.1 1.1 
386 3 190 160 0 0 0 0.280691 0.959798 1.35 1.1 1.1 
387 3 200 160 0 0 0 0.968202 -0.250169 1.35 1.1 1.1 
388 3 0 170 0 0 0 0.320967 -0.94709 1.35 1.1 1.1 
389 3 10 170 0 0 0 0.99345 -0.11427 1.35 1.1 1.1 
390 3 20 170 0 0 0 0.351465 -0.936201 1.35 1.1 1.1 
391 3 30 170 0 0 0 0.969169 -0.246397 1.35 1.1 1.1 
392 3 40 170 0 0 0 0.998716 -0.0506666 1.35 1.1 1.1 
393 3 50 170 0 0 0 0.180656 -0.983546 1.35 1.1 1.1 
394 3 60 170 0 0 0 0.955907 -0.29367 1.35 1.1 1.1 
395 3 70 170 0 0 0 0.995872 -0.0907702 1.35 1.1 1.1 
396 3 80 170 0 0 0 0.926456 -0.376404 1.35 1.1 1.1 
397 3 90 170 0 0 0 0.339265 -0.940691 1.35 1.1 1.1 
398 3 100 170 0 0 0 0.286605 0.958049 1.35 1.1 1.1 
399 3 110 170 0 0 0 0.355779 -0.93457 1.35 1.1 1.1 
400 3 120 170 0 0 0 0.302153 0.953259 1.35 1.1 1.1 
401 3 130 170 0 0 0 0.327621 -0.944809 1.35 1.1 1.1 
402 3 140 170 0 0 0 0.928777 -0.37064 1.35 1.1 1.1 
403 3 150 170 0 0 0 0.844594 -0.535407 1.35 1.1 1.1 
404 3 160 170 0 0 0 0.292173 -0.956366 1.35 1.1 1.1 
405 3 170 170 0 0 0 0.820325 -0.571897 1.35 1.1 1.1 
406 3 180 170 0 0 0 0.219034 0.975717 1.35 1.1 1.1 
407 3 190 170 0 0 0 0.986142 -0.165906 1.35 1.1 1.1 
408 3 200 170 0 0 0 0.35238 -0.935857 1.35 1.1 1.1 
409 3 0 180 0 0 0 0.211255 0.977431 1.35 1.1 1.1 
410 3 10 180 0 0 0 0.989753 -0.142787 1.35 1.1 1.1 
411 3 20 180 0 0 0 0.592736 0.805397 1.35 1.1 1.1 
412 3 30 180 0 0 0 0.118045 -0.993008 1.35 1.1 1.1 
413 3 40 180 0 0 0 0.240044 -0.970762 1.35 1.1 1.1 
414 3 50 180 0 0 0 0.99957 0.0293343 1.35 1.1 1.1 
415 3 60 180 0 0 0 0.495607 0.868547 1.35 1.1 1.1 
416 3 70 180 0 0 0 0.498845 0.866691 1.35 1.1 1.1 
417 3 80 180 0 0 0 0.878832 0.477132 1.35 1.1 1.1 
418 3 90 180 0 0 0 0.925827 0.377948 1.35 1.1 1.1 
419 3 100 180 0 0 0 0.343739 -0.939065 1.35 1.1 1.1 
420 3 110 180 0 0 0 0.881068 0.47299 1.35 1.1 1.1 
421 3 120 180 0 0 0 0.67978 0.733416 1.35 1.1 1.1 
422 3 130 180 0 0 0 0.749565 -0.66193 1.35 1.1 1.1 
423 3 140 180 0 0 0 0.997304 -0.0733747 1.35 1.1 1.1 
424 3 150 180 0 0 0 0.979595 0.20098 1.35 1.1 1.1 
425 3 160 180 0 0 0 0.533619 -0.845725 1.35 1.1 1.1 
426 3 170 180 0 0 0 0.0815779 0.996667 1.35 1.1 1.1 
427 3 180 180 0 0 0 0.467034 -0.884239 1.35 1.1 1.1 
428 3 190 180 0 0 0 0.0642648 -0.997933 1.35 1.1 1.1 
429 3 200 180 0 0 0 0.59523 0.803555 1.35 1.1 1.1 
430 3 0 190 0 0 0 0.874391 0.485222 1.35 1.1 1.1 
431 3 10 190 0 0 0 0.88405 -0.467393 1.35 1.1 1.1 
432 3 20 190 0 0 0 0.644555 0.764558 1.35 1.1 1.1 
433 3 30 190 0 0 0 0.764507 0.644615 1.35 1.1 1.1 
434 3 40 190 0 0 0 0.925654 0.37837 1.35 1.1 1.1 
435 3 50 190 0 0 0 0.0105802 0.999944 1.35 1.1 1.1 
436 3 60 190 0 0 0 0.479751 -0.877405 1.35 1.1 1.1 
437 3 70 190 0 0 0 0.997399 0.072079 1.35 1.1 1.1 
438 3 80 190 0 0 0 0.77056 -0.637367 1.35 1.1 1.1 
439 3 90 190 0 0 0 0.884852 -0.465872 1.35 1.1 1.1 
440 3 100 190 0 0 0 0.997536 -0.0701615 1.35 1.1 1.1 
441 3 110 190 0 0 0 0.903284 0.429042 1.35 1.1 1.1 
442 3 120 190 0 0 0 0.401422 0.915893 1.35 1.1 1.1 
443 3 130 190 0 0 0 0.681907 -0.731439 1.35 1.1 1.1 
444 3 140 190 0 0 0 0.132613 -0.991168 1.35 1.1 1.1 
445 3 150 190 0 0 0 0.0760596 -0.997103 1.35 1.1 1.1 
446 3 160 190 0 0 0 0.998733 -0.0503146 1.35 1.1 1.1 
ITEM: TIMESTEP
1000
ITEM: NUMBER OF ATOMS
446
ITEM: BOX BOUNDS pp pp pp
0.0000000000000000e+00 1.9600000000000000e+02
0.0000000000000000e+00 1.9600000000000000e+02
-5.0000000000000000e-01 5.0000000000000000e-01
ITEM: ATOMS id type x y z c_orient[1] c_orient[2] c_orient[3] c_orient[4] c_shape[1] c_shape[2] c_shape[3] 
1 1 97.2065 101.62 0 0 0 0 1 0.5 0.5 0.5 
2 1 97.7384 100.707 0 0 0 0 1 0.5 0.5 0.5 
3 1 98.2268 99.7925 0 0 0 0 1 0.5 0.5 0.5 
4 1 98.7135 98.8275 0 0 0 0 1 0.5 0.5 0.5 
5 1 99.218 97.9011 0 0 0 0 1 0.5 0.5 0.5 
6 1 99.784 96.9907 0 0 0 0 1 0.5 0.5 0.5 
7 1 100.341 96.0753 0 0 0 0 1 0.5 0.5 0.5 
8 1 100.921 95.1583 0 0 0 0 1 0.5 0.5 0.5 
9 1 101.429 94.2175 0 0 0 0 1 0.5 0.5 0.5 
10 1 101.983 93.2946 0 0 0 0 1 0.5 0.5 0.5 
11 1 102.54 92.3763 0 0 0 0 1 0.5 0.5 0.5 
12 1 103.061 91.4416 0 0 0 0 1 0.5 0.5 0.5 
13 1 103.606 90.5302 0 0 0 0 1 0.5 0.5 0.5 
14 1 104.073 89.5867 0 0 0 0 1 0.5 0.5 0.5 
15 1 104.615 88.6812 0 0 0 0 1 0.5 0.5 0.5 
16 1 105.166 87.7744 0 0 0 0 1 0.5 0.5 0.5 
17 1 105.718 86.8747 0 0 0 0 1 0.5 0.5 0.5 
18 1 106.304 85.9935 0 0 0 0 1 0.5 0.5 0.5 
19 1 106.869 85.1008 0 0 0 0 1 0.5 0.5 0.5 
20 1 107.477 84.2346 0 0 0 0 1 0.5 0.5 0.5 
21 1 108.097 83.391 0 0 0 0 1 0.5 0.5 0.5 
22 1 108.727 82.5296 0 0 0 0 1 0.5 0.5 0.5 
23 1 109.354 81.6888 0 0 0 0 1 0.5 0.5 0.5 
24 1 109.988 80.8308 0 0 0 0 1 0.5 0.5 0.5 
25 1 110.618 80.0002 0 0 0 0 1 0.5 0.5 0.5 
26 1 111.245 79.1464 0 0 0 0 1 0.5 0.5 0.5 
27 1 111.869 78.301 0 0 0 0 1 0.5 0.5 0.5 
28 1 112.503 77.4717 0 0 0 0 1 0.5 0.5 0.5 
29 1 113.108 76.6 0 0 0 0 1 0.5 0.5 0.5 
30 2 113.711 75.74 0 0 0 0 1 0.5 0.5 0.5 
31 3 195.57 194.167 0 0 0 0.828817 0.559519 1.35 1.1 1.1 
32 3 10.3483 193.478 0 0 0 0.0478674 -0.998854 1.35 1.1 1.1 
33 3 23.4728 2.24844 0 0 0 0.829131 -0.559054 1.35 1.1 1.1 
34 3 32.8207 191.479 0 0 0 0.733086 -0.680136 1.35 1.1 1.1 
35 3 29.4697 195.549 0 0 0 0.954779 0.297317 1.35 1.1 1.1 
36 3 45.302 191.315 0 0 0 0.873301 -0.487181 1.35 1.1 1.1 
37 3 55.4433 193.537 0 0 0 0.99869 0.051172 1.35 1.1 1.1 
38 3 61.6501 193.473 0 0 0 0.336 -0.941862 1.35 1.1 1.1 
39 3 77.1255 1.31968 0 0 0 0.734724 0.678366 1.35 1.1 1.1 
40 3 83.6534 194.173 0 0 0 0.958032 -0.286661 1.35 1.1 1.1 
41 3 95.3187 1.47382 0 0 0 0.821274 0.570534 1.35 1.1 1.1 
42 3 101.676 192.519 0 0 0 0.998257 0.0590173 1.35 1.1 1.1 
43 3 109.78 193.212 0 0 0 0.968899 0.247457 1.35 1.1 1.1 
44 3 125.456 194.656 0 0 0 0.260316 0.965524 1.35 1.1 1.1 
45 3 126.083 4.66864 0 0 0 0.974048 0.22634 1.35 1.1 1.1 
46 3 137.183 0.875842 0 0 0 0.239091 0.970997 1.35 1.1 1.1 
47 3 148.49 2.31327 0 0 0 0.850348 -0.526221 1.35 1.1 1.1 
48 3 162.066 3.28146 0 0 0 0.0569351 -0.998378 1.35 1.1 1.1 
49 3 169.893 191.905 0 0 0 0.357088 -0.934071 1.35 1.1 1.1 
50 3 178.354 0.288997 0 0 0 0.796319 0.604877 1.35 1.1 1.1 
51 3 187.31 4.29962 0 0 0 0.967595 0.252508 1.35 1.1 1.1 
52 3 4.83969 10.9326 0 0 0 0.957052 -0.289915 1.35 1.1 1.1 
53 3 10.3659 8.97416 0 0 0 0.882225 0.470829 1.35 1.1 1.1 
54 3 14.1193 12.313 0 0 0 0.184398 -0.982852 1.35 1.1 1.1 
55 3 30.8334 6.49581 0 0 0 0.335649 -0.941987 1.35 1.1 1.1 
56 3 38.4356 10.9116 0 0 0 0.281818 -0.959468 1.35 1.1 1.1 
57 3 47.7831 8.65512 0 0 0 0.557102 -0.830444 1.35 1.1 1.1 
58 3 52.1358 5.14976 0 0 0 0.0282786 0.9996 1.35 1.1 1.1 
59 3 61.9054 3.98183 0 0 0 0.975314 -0.220823 1.35 1.1 1.1 
60 3 69.4812 13.6265 0 0 0 0.891255 0.453502 1.35 1.1 1.1 
61 3 81.4859 8.9247 0 0 0 0.390707 0.920515 1.35 1.1 1.1 
62 3 91.3484 14.2974 0 0 0 0.999247 0.0387984 1.35 1.1 1.1 
63 3 101.948 5.64953 0 0 0 0.0904849 0.995898 1.35 1.1 1.1 
64 3 107.331 8.32216 0 0 0 0.957377 0.288842 1.35 1.1 1.1 
65 3 118.644 11.6269 0 0 0 0.246071 0.969252 1.35 1.1 1.1 
66 3 132.408 9.469 0 0 0 0.0822334 0.996613 1.35 1.1 1.1 
67 3 141.69 13.419 0 0 0 0.429881 -0.902885 1.35 1.1 1.1 
68 3 152.888 10.9438 0 0 0 0.0323012 0.999478 1.35 1.1 1.1 
69 3 157.601 9.60661 0 0 0 0.617617 0.786479 1.35 1.1 1.1 
70 3 171.106 10.1994 0 0 0 0.430946 -0.902378 1.35 1.1 1.1 
71 3 176.932 13.8311 0 0 0 0.939649 0.34214 1.35 1.1 1.1 
72 3 183.886 10.1871 0 0 0 0.238077 -0.971246 1.35 1.1 1.1 
73 3 195.203 18.186 0 0 0 0.900465 -0.434929 1.35 1.1 1.1 
74 3 9.87909 12.7038 0 0 0 0.813416 -0.581683 1.35 1.1 1.1 
75 3 16.597 20.8804 0 0 0 0.843574 0.537013 1.35 1.1 1.1 
76 3 27.0317 22.0934 0 0 0 0.999834 0.0182403 1.35 1.1 1.1 
77 3 32.7548 20.0611 0 0 0 0.923445 0.383732 1.35 1.1 1.1 
78 3 44.3214 16.1238 0 0 0 0.955438 -0.295193 1.35 1.1 1.1 
79 3 52.8801 20.1785 0 0 0 0.947376 -0.320122 1.35 1.1 1.1 
80 3 60.6926 18.5772 0 0 0 0.713209 -0.700952 1.35 1.1 1.1 
81 3 77.9535 22.3884 0 0 0 0.280278 -0.959919 1.35 1.1 1.1 
82 3 81.876 16.1227 0 0 0 0.698224 -0.715879 1.35 1.1 1.1 
83 3 96.1485 23.0073 0 0 0 0.962066 0.272816 1.35 1.1 1.1 
84 3 104.365 15.0579 0 0 0 0.577455 0.816422 1.35 1.1 1.1 
85 3 109.54 20.996 0 0 0 0.210664 -0.977559 1.35 1.1 1.1 
86 3 119.757 22.6613 0 0 0 0.920016 -0.391882 1.35 1.1 1.1 
87 3 125.871 20.7734 0 0 0 0.999939 0.0110473 1.35 1.1 1.1 
88 3 134.92 23.5482 0 0 0 0.719264 0.694737 1.35 1.1 1.1 
89 3 147.752 18.2446 0 0 0 0.979014 -0.203792 1.35 1.1 1.1 
90 3 157.096 15.5436 0 0 0 0.942739 0.33353 1.35 1.1 1.1 
91 3 166.185 15.2325 0 0 0 0.975123 -0.221666 1.35 1.1 1.1 
92 3 182.46 13.9306 0 0 0 0.958794 -0.284103 1.35 1.1 1.1 
93 3 191.097 19.5046 0 0 0 0.857075 -0.515192 1.35 1.1 1.1 
94 3 193.541 24.5561 0 0 0 0.552767 0.833336 1.35 1.1 1.1 
95 3 11.912 27.4713 0 0 0 0.256524 0.966538 1.35 1.1 1.1 
96 3 19.1436 26.8642 0 0 0 0.975007 0.222173 1.35 1.1 1.1 
97 3 31.926 26.5631 0 0 0 0.426543 0.904467 1.35 1.1 1.1 
98 3 36.5396 31.0382 0 0 0 0.98888 0.148715 1.35 1.1 1.1 
99 3 45.3144 23.9376 0 0 0 0.798494 -0.602002 1.35 1.1 1.1 
100 3 51.6521 29.5572 0 0 0 0.456465 0.889741 1.35 1.1 1.1 
101 3 69.0459 29.784 0 0 0 0.58129 0.813697 1.35 1.1 1.1 
102 3 72.3393 24.5759 0 0 0 0.703818 0.71038 1.35 1.1 1.1 
103 3 86.488 27.2751 0 0 0 0.874287 -0.48541 1.35 1.1 1.1 
104 3 90.5101 24.173 0 0 0 0.130306 -0.991474 1.35 1.1 1.1 
105 3 104.777 27.1518 0 0 0 0.543721 0.839266 1.35 1.1 1.1 
106 3 108.137 29.2214 0 0 0 0.995216 0.097703 1.35 1.1 1.1 
107 3 119.998 26.335 0 0 0 0.719932 0.694044 1.35 1.1 1.1 
108 3 131.263 32.8319 0 0 0 0.6012 -0.799099 1.35 1.1 1.1 
109 3 138.969 30.6993 0 0 0 0.22222 -0.974996 1.35 1.1 1.1 
110 3 150.195 31.9711 0 0 0 0.583927 0.811806 1.35 1.1 1.1 
111 3 154.794 24.3343 0 0 0 0.857216 -0.514957 1.35 1.1 1.1 
112 3 168.047 28.5027 0 0 0 0.977203 0.212308 1.35 1.1 1.1 
113 3 180.271 24.7415 0 0 0 0.652817 0.757515 1.35 1.1 1.1 
114 3 189.49 27.3706 0 0 0 0.846639 -0.532168 1.35 1.1 1.1 
115 3 194.252 37.2313 0 0 0 0.490668 0.871347 1.35 1.1 1.1 
116 3 10.5875 32.791 0 0 0 0.30855 0.951208 1.35 1.1 1.1 
117 3 16.7865 40.6773 0 0 0 0.618785 -0.785561 1.35 1.1 1.1 
118 3 25.2823 40.9986 0 0 0 0.823797 0.566885 1.35 1.1 1.1 
119 3 40.8956 33.2855 0 0 0 0.801854 -0.59752 1.35 1.1 1.1 
120 3 41.5804 38.4004 0 0 0 0.372451 0.928052 1.35 1.1 1.1 
121 3 52.9575 35.4317 0 0 0 0.925818 0.37797 1.35 1.1 1.1 