ITEM: TIMESTEP
0
ITEM: NUMBER OF ATOMS
1278
ITEM: BOX BOUNDS pp pp pp
0.0000000000000000e+00 2.1000000000000000e+02
0.0000000000000000e+00 2.1000000000000000e+02
-5.0000000000000000e-01 5.0000000000000000e-01
ITEM: ATOMS id type x y z c_orient[1] c_orient[2] c_orient[3] c_orient[4] c_shape[1] c_shape[2] c_shape[3] 
1 1 105.329 108.097 0 0 0 0 1 0.5 0.5 0.5 
2 1 105.727 107.125 0 0 0 0 1 0.5 0.5 0.5 
3 1 106.125 106.154 0 0 0 0 1 0.5 0.5 0.5 
4 1 106.524 105.184 0 0 0 0 1 0.5 0.5 0.5 
5 1 106.928 104.215 0 0 0 0 1 0.5 0.5 0.5 
6 1 107.337 103.248 0 0 0 0 1 0.5 0.5 0.5 
7 1 107.756 102.285 0 0 0 0 1 0.5 0.5 0.5 
8 1 108.187 101.328 0 0 0 0 1 0.5 0.5 0.5 
9 1 108.632 100.377 0 0 0 0 1 0.5 0.5 0.5 
10 1 109.093 99.4342 0 0 0 0 1 0.5 0.5 0.5 
11 1 109.575 98.5019 0 0 0 0 1 0.5 0.5 0.5 
12 1 110.078 97.5813 0 0 0 0 1 0.5 0.5 0.5 
13 1 110.599 96.6701 0 0 0 0 1 0.5 0.5 0.5 
14 1 111.136 95.7688 0 0 0 0 1 0.5 0.5 0.5 
15 1 111.689 94.8775 0 0 0 0 1 0.5 0.5 0.5 
16 1 112.257 93.9962 0 0 0 0 1 0.5 0.5 0.5 
17 1 112.838 93.123 0 0 0 0 1 0.5 0.5 0.5 
18 1 113.433 92.2596 0 0 0 0 1 0.5 0.5 0.5 
19 1 114.045 91.4072 0 0 0 0 1 0.5 0.5 0.5 
20 1 114.674 90.5669 0 0 0 0 1 0.5 0.5 0.5 
21 1 115.321 89.7408 0 0 0 0 1 0.5 0.5 0.5 
22 1 115.986 88.9289 0 0 0 0 1 0.5 0.5 0.5 
23 1 116.669 88.132 0 0 0 0 1 0.5 0.5 0.5 
24 1 117.366 87.3489 0 0 0 0 1 0.5 0.5 0.5 
25 1 118.073 86.5738 0 0 0 0 1 0.5 0.5 0.5 
26 1 118.787 85.8056 0 0 0 0 1 0.5 0.5 0.5 
27 1 119.507 85.0415 0 0 0 0 1 0.5 0.5 0.5 
28 1 120.23 84.2803 0 0 0 0 1 0.5 0.5 0.5 
29 1 120.955 83.5213 0 0 0 0 1 0.5 0.5 0.5 
30 2 121.681 82.7631 0 0 0 0 1 0.5 0.5 0.5 
31 3 0 0 0 0 0 0.828817 0.559519 1.05 1.05 1.05 
32 3 5.83333 0 0 0 0 0.182338 0.983236 1.05 1.05 1.05 
33 3 11.6667 0 0 0 0 0.99968 -0.0252942 1.05 1.05 1.05 
34 3 17.5 0 0 0 0 0.635686 -0.771948 1.05 1.05 1.05 
35 3 23.3333 0 0 0 0 0.999501 -0.0315911 1.05 1.05 1.05 
36 3 29.1667 0 0 0 0 0.476088 0.879398 1.05 1.05 1.05 
37 3 35 0 0 0 0 0.759921 -0.650015 1.05 1.05 1.05 
38 3 40.8333 0 0 0 0 0.294151 -0.955759 1.05 1.05 1.05 
39 3 46.6667 0 0 0 0 0.502793 0.864407 1.05 1.05 1.05 
40 3 52.5 0 0 0 0 0.652448 -0.757833 1.05 1.05 1.05 
41 3 58.3333 0 0 0 0 0.456758 -0.889591 1.05 1.05 1.05 
42 3 64.1667 0 0 0 0 0.469013 0.883191 1.05 1.05 1.05 
43 3 70 0 0 0 0 0.336 -0.941862 1.05 1.05 1.05 
44 3 75.8333 0 0 0 0 0.990507 -0.137465 1.05 1.05 1.05 
45 3 81.6667 0 0 0 0 0.542891 -0.839803 1.05 1.05 1.05 
46 3 87.5 0 0 0 0 0.542764 -0.839885 1.05 1.05 1.05 
47 3 93.3333 0 0 0 0 0.889054 -0.457803 1.05 1.05 1.05 
48 3 99.1667 0 0 0 0 0.421041 0.907042 1.05 1.05 1.05 
49 3 105 0 0 0 0 0.624673 0.780887 1.05 1.05 1.05 
50 3 110.833 0 0 0 0 0.632031 -0.774943 1.05 1.05 1.05 
51 3 116.667 0 0 0 0 0.518765 -0.854917 1.05 1.05 1.05 
52 3 122.5 0 0 0 0 0.500056 0.865993 1.05 1.05 1.05 
53 3 128.333 0 0 0 0 0.91106 -0.412274 1.05 1.05 1.05 
54 3 134.167 0 0 0 0 0.936922 -0.349539 1.05 1.05 1.05 
55 3 140 0 0 0 0 0.974048 0.22634 1.05 1.05 1.05 
56 3 145.833 0 0 0 0 0.585107 0.810956 1.05 1.05 1.05 
57 3 151.667 0 0 0 0 0.999909 0.0134727 1.05 1.05 1.05 
58 3 157.5 0 0 0 0 0.961771 -0.273857 1.05 1.05 1.05 
59 3 163.333 0 0 0 0 0.0383013 -0.999266 1.05 1.05 1.05 
60 3 169.167 0 0 0 0 0.21237 -0.977189 1.05 1.05 1.05 
61 3 175 0 0 0 0 0.965279 0.26122 1.05 1.05 1.05 
62 3 180.833 0 0 0 0 0.0726172 -0.99736 1.05 1.05 1.05 
63 3 186.667 0 0 0 0 0.95745 0.288598 1.05 1.05 1.05 
64 3 192.5 0 0 0 0 0.454098 0.890952 1.05 1.05 1.05 
65 3 198.333 0 0 0 0 0.927048 -0.374942 1.05 1.05 1.05 
66 3 204.167 0 0 0 0 0.64482 0.764334 1.05 1.05 1.05 
67 3 0 5.83333 0 0 0 0.671943 -0.740603 1.05 1.05 1.05 
68 3 5.83333 5.83333 0 0 0 0.998096 -0.0616839 1.05 1.05 1.05 
69 3 11.6667 5.83333 0 0 0 0.338517 -0.94096 1.05 1.05 1.05 
70 3 17.5 5.83333 0 0 0 0.946453 0.322843 1.05 1.05 1.05 
71 3 23.3333 5.83333 0 0 0 0.94137 0.337377 1.05 1.05 1.05 
72 3 29.1667 5.83333 0 0 0 0.821343 0.570435 1.05 1.05 1.05 
73 3 35 5.83333 0 0 0 0.944463 0.328617 1.05 1.05 1.05 
74 3 40.8333 5.83333 0 0 0 0.989054 -0.147556 1.05 1.05 1.05 
75 3 46.6667 5.83333 0 0 0 0.0148592 -0.99989 1.05 1.05 1.05 
76 3 52.5 5.83333 0 0 0 0.206459 -0.978455 1.05 1.05 1.05 
77 3 58.3333 5.83333 0 0 0 0.906169 0.422916 1.05 1.05 1.05 
78 3 64.1667 5.83333 0 0 0 0.480014 0.877261 1.05 1.05 1.05 
79 3 70 5.83333 0 0 0 0.310316 0.950633 1.05 1.05 1.05 
80 3 75.8333 5.83333 0 0 0 0.955273 -0.295724 1.05 1.05 1.05 
81 3 81.6667 5.83333 0 0 0 0.999954 0.00955133 1.05 1.05 1.05 
82 3 87.5 5.83333 0 0 0 0.909167 0.416432 1.05 1.05 1.05 
83 3 93.3333 5.83333 0 0 0 0.676245 -0.736677 1.05 1.05 1.05 
84 3 99.1667 5.83333 0 0 0 0.193455 0.981109 1.05 1.05 1.05 
85 3 105 5.83333 0 0 0 0.0830309 -0.996547 1.05 1.05 1.05 
86 3 110.833 5.83333 0 0 0 0.505635 0.862748 1.05 1.05 1.05 
87 3 116.667 5.83333 0 0 0 0.277819 0.960633 1.05 1.05 1.05 
88 3 122.5 5.83333 0 0 0 0.863276 -0.504732 1.05 1.05 1.05 
89 3 128.333 5.83333 0 0 0 0.965854 0.259088 1.05 1.05 1.05 
90 3 134.167 5.83333 0 0 0 0.613713 -0.789529 1.05 1.05 1.05 
91 3 140 5.83333 0 0 0 0.247613 -0.968859 1.05 1.05 1.05 
92 3 145.833 5.83333 0 0 0 0.366435 0.930444 1.05 1.05 1.05 
93 3 151.667 5.83333 0 0 0 0.059184 0.998247 1.05 1.05 1.05 
94 3 157.5 5.83333 0 0 0 0.670547 0.741867 1.05 1.05 1.05 
95 3 163.333 5.83333 0 0 0 0.943541 0.331255 1.05 1.05 1.05 
96 3 169.167 5.83333 0 0 0 0.0130353 -0.999915 1.05 1.05 1.05 
97 3 175 5.83333 0 0 0 0.0195313 -0.999809 1.05 1.05 1.05 
98 3 180.833 5.83333 0 0 0 0.508336 -0.861159 1.05 1.05 1.05 
99 3 186.667 5.83333 0 0 0 0.0374675 0.999298 1.05 1.05 1.05 
100 3 192.5 5.83333 0 0 0 0.494677 0.869077 1.05 1.05 1.05 
101 3 198.333 5.83333 0 0 0 0.0939791 0.995574 1.05 1.05 1.05 
102 3 204.167 5.83333 0 0 0 0.0109578 0.99994 1.05 1.05 1.05 
103 3 0 11.6667 0 0 0 0.527978 0.849258 1.05 1.05 1.05 
104 3 5.83333 11.6667 0 0 0 0.583606 0.812037 1.05 1.05 1.05 
105 3 11.6667 11.6667 0 0 0 0.9212 -0.389089 1.05 1.05 1.05 
106 3 17.5 11.6667 0 0 0 0.196408 -0.980522 1.05 1.05 1.05 
107 3 23.3333 11.6667 0 0 0 0.720457 0.6935 1.05 1.05 1.05 
108 3 29.1667 11.6667 0 0 0 0.257191 0.966361 1.05 1.05 1.05 
109 3 35 11.6667 0 0 0 0.731067 0.682305 1.05 1.05 1.05 
110 3 40.8333 11.6667 0 0 0 0.207894 -0.978151 1.05 1.05 1.05 
111 3 46.6667 11.6667 0 0 0 0.773487 -0.633812 1.05 1.05 1.05 
112 3 52.5 11.6667 0 0 0 0.345379 0.938463 1.05 1.05 1.05 
113 3 58.3333 11.6667 0 0 0 0.751931 -0.659241 1.05 1.05 1.05 
114 3 64.1667 11.6667 0 0 0 0.855094 -0.518473 1.05 1.05 1.05 
115 3 70 11.6667 0 0 0 0.753508 0.657439 1.05 1.05 1.05 
116 3 75.8333 11.6667 0 0 0 0.197378 -0.980327 1.05 1.05 1.05 
117 3 81.6667 11.6667 0 0 0 0.321389 0.946947 1.05 1.05 1.05 
118 3 87.5 11.6667 0 0 0 0.995689 -0.0927495 1.05 1.05 1.05 
119 3 93.3333 11.6667 0 0 0 0.953296 0.302038 1.05 1.05 1.05 
120 3 99.1667 11.6667 0 0 0 0.999973 0.0073782 1.05 1.05 1.05 
121 3 105 11.6667 0 0 0 0.814329 -0.580403 1.05 1.05 1.05 
122 3 110.833 11.6667 0 0 0 0.466242 0.884657 1.05 1.05 1.05 
123 3 116.667 11.6667 0 0 0 0.219598 0.97559 1.05 1.05 1.05 
124 3 122.5 11.6667 0 0 0 0.949096 0.314986 1.05 1.05 1.05 
125 3 128.333 11.6667 0 0 0 0.0303863 0.999538 1.05 1.05 1.05 
126 3 134.167 11.6667 0 0 0 0.969876 -0.2436 1.05 1.05 1.05 
127 3 140 11.6667 0 0 0 0.713665 0.700487 1.05 1.05 1.05 
128 3 145.833 11.6667 0 0 0 0.212693 0.977119 1.05 1.05 1.05 
129 3 151.667 11.6667 0 0 0 0.0336504 0.999434 1.05 1.05 1.05 
130 3 157.5 11.6667 0 0 0 0.330703 0.943735 1.05 1.05 1.05 
131 3 163.333 11.6667 0 0 0 0.193937 -0.981014 1.05 1.05 1.05 
132 3 169.167 11.6667 0 0 0 0.935626 -0.352994 1.05 1.05 1.05 
133 3 175 11.6667 0 0 0 0.874398 0.485209 1.05 1.05 1.05 
134 3 180.833 11.6667 0 0 0 0.758249 -0.651965 1.05 1.05 1.05 
135 3 186.667 11.6667 0 0 0 0.155146 -0.987892 1.05 1.05 1.05 
136 3 192.5 11.6667 0 0 0 0.821486 0.570229 1.05 1.05 1.05 
137 3 198.333 11.6667 0 0 0 0.954314 0.298805 1.05 1.05 1.05 
138 3 204.167 11.6667 0 0 0 0.698517 -0.715593 1.05 1.05 1.05 
139 3 0 17.5 0 0 0 0.636267 0.771469 1.05 1.05 1.05 
140 3 5.83333 17.5 0 0 0 0.443937 0.896058 1.05 1.05 1.05 
141 3 11.6667 17.5 0 0 0 0.999413 -0.0342484 1.05 1.05 1.05 
142 3 17.5 17.5 0 0 0 0.432354 0.901704 1.05 1.05 1.05 
143 3 23.3333 17.5 0 0 0 0.390402 -0.920645 1.05 1.05 1.05 
144 3 29.1667 17.5 0 0 0 0.929528 -0.368752 1.05 1.05 1.05 
145 3 35 17.5 0 0 0 0.999643 -0.0267307 1.05 1.05 1.05 
146 3 40.8333 17.5 0 0 0 0.994126 -0.108231 1.05 1.05 1.05 
147 3 46.6667 17.5 0 0 0 0.886264 0.46318 1.05 1.05 1.05 
148 3 52.5 17.5 0 0 0 0.193221 0.981155 1.05 1.05 1.05 
149 3 58.3333 17.5 0 0 0 0.99857 0.0534541 1.05 1.05 1.05 
150 3 64.1667 17.5 0 0 0 0.880337 -0.474349 1.05 1.05 1.05 
151 3 70 17.5 0 0 0 0.186076 0.982535 1.05 1.05 1.05 
152 3 75.8333 17.5 0 0 0 0.405801 -0.913961 1.05 1.05 1.05 
153 3 81.6667 17.5 0 0 0 0.97876 -0.205007 1.05 1.05 1.05 
154 3 87.5 17.5 0 0 0 0.96156 -0.274595 1.05 1.05 1.05 
155 3 93.3333 17.5 0 0 0 0.435248 0.900311 1.05 1.05 1.05 
156 3 99.1667 17.5 0 0 0 0.999732 -0.0231496 1.05 1.05 1.05 
157 3 105 17.5 0 0 0 0.840461 0.541873 1.05 1.05 1.05 
158 3 110.833 17.5 0 0 0 0.201831 0.97942 1.05 1.05 1.05 
159 3 116.667 17.5 0 0 0 0.673557 -0.739136 1.05 1.05 1.05 
160 3 122.5 17.5 0 0 0 0.465731 -0.884926 1.05 1.05 1.05 
161 3 128.333 17.5 0 0 0 0.922444 -0.38613 1.05 1.05 1.05 
162 3 134.167 17.5 0 0 0 0.329549 -0.944139 1.05 1.05 1.05 
163 3 140 17.5 0 0 0 0.986303 -0.164942 1.05 1.05 1.05 
164 3 145.833 17.5 0 0 0 0.896925 -0.442183 1.05 1.05 1.05 
165 3 151.667 17.5 0 0 0 0.672588 0.740017 1.05 1.05 1.05 
166 3 157.5 17.5 0 0 0 0.946294 -0.323307 1.05 1.05 1.05 
167 3 163.333 17.5 0 0 0 0.897427 -0.441162 1.05 1.05 1.05 
168 3 169.167 17.5 0 0 0 0.575407 0.817867 1.05 1.05 1.05 
169 3 175 17.5 0 0 0 0.188343 -0.982103 1.05 1.05 1.05 
170 3 180.833 17.5 0 0 0 0.367141 0.930165 1.05 1.05 1.05 
171 3 186.667 17.5 0 0 0 0.993942 -0.10991 1.05 1.05 1.05 
172 3 192.5 17.5 0 0 0 0.396299 -0.918122 1.05 1.05 1.05 
173 3 198.333 17.5 0 0 0 0.908672 0.417511 1.05 1.05 1.05 
174 3 204.167 17.5 0 0 0 0.987793 0.15577 1.05 1.05 1.05 
175 3 0 23.3333 0 0 0 0.566183 0.82428 1.05 1.05 1.05 
176 3 5.83333 23.3333 0 0 0 0.951208 0.308551 1.05 1.05 1.05 
177 3 11.6667 23.3333 0 0 0 0.750858 0.660463 1.05 1.05 1.05 
178 3 17.5 23.3333 0 0 0 0.711886 0.702295 1.05 1.05 1.05 
179 3 23.3333 23.3333 0 0 0 0.963738 -0.266851 1.05 1.05 1.05 
180 3 29.1667 23.3333 0 0 0 0.571245 0.82078 1.05 1.05 1.05 
181 3 35 23.3333 0 0 0 0.994885 -0.101018 1.05 1.05 1.05 
182 3 40.8333 23.3333 0 0 0 0.154375 -0.988012 1.05 1.05 1.05 
183 3 46.6667 23.3333 0 0 0 0.659741 0.751493 1.05 1.05 1.05 
184 3 52.5 23.3333 0 0 0 0.801419 0.598103 1.05 1.05 1.05 
185 3 58.3333 23.3333 0 0 0 0.943654 -0.330934 1.05 1.05 1.05 
186 3 64.1667 23.3333 0 0 0 0.1346 0.9909 1.05 1.05 1.05 
187 3 70 23.3333 0 0 0 0.697738 -0.716353 1.05 1.05 1.05 
188 3 75.8333 23.3333 0 0 0 0.792158 -0.610317 1.05 1.05 1.05 
189 3 81.6667 23.3333 0 0 0 0.256935 -0.966429 1.05 1.05 1.05 
190 3 87.5 23.3333 0 0 0 0.980665 -0.195694 1.05 1.05 1.05 
191 3 93.3333 23.3333 0 0 0 0.651765 -0.758421 1.05 1.05 1.05 
192 3 99.1667 23.3333 0 0 0 0.257336 -0.966322 1.05 1.05 1.05 
193 3 105 23.3333 0 0 0 0.855903 -0.517137 1.05 1.05 1.05 
194 3 110.833 23.3333 0 0 0 0.940288 0.34038 1.05 1.05 1.05 
195 3 116.667 23.3333 0 0 0 0.171669 -0.985155 1.05 1.05 1.05 
196 3 122.5 23.3333 0 0 0 0.584116 0.81167 1.05 1.05 1.05 
197 3 128.333 23.3333 0 0 0 0.816266 0.577677 1.05 1.05 1.05 
198 3 134.167 23.3333 0 0 0 0.790397 0.612595 1.05 1.05 1.05 
199 3 140 23.3333 0 0 0 0.0143282 0.999897 1.05 1.05 1.05 
200 3 145.833 23.3333 0 0 0 0.904581 -0.426301 1.05 1.05 1.05 
201 3 151.667 23.3333 0 0 0 0.312373 0.949959 1.05 1.05 1.05 
202 3 157.5 23.3333 0 0 0 0.989109 -0.147182 1.05 1.05 1.05 
203 3 163.333 23.3333 0 0 0 0.848612 0.529015 1.05 1.05 1.05 
204 3 169.167 23.3333 0 0 0 0.404272 -0.914639 1.05 1.05 1.05 
205 3 175 23.3333 0 0 0 0.463454 0.886121 1.05 1.05 1.05 
206 3 180.833 23.3333 0 0 0 0.531733 -0.846912 1.05 1.05 1.05 
207 3 186.667 23.3333 0 0 0 0.677469 0.735552 1.05 1.05 1.05 
208 3 192.5 23.3333 0 0 0 0.710059 -0.704142 1.05 1.05 1.05 
209 3 198.333 23.3333 0 0 0 0.471237 -0.882007 1.05 1.05 1.05 
210 3 204.167 23.3333 0 0 0 0.990157 0.139959 1.05 1.05 1.05 
211 3 0 29.1667 0 0 0 0.915281 0.402817 1.05 1.05 1.05 
212 3 5.83333 29.1667 0 0 0 0.666033 0.745922 1.05 1.05 1.05 
213 3 11.6667 29.1667 0 0 0 0.435216 0.900326 1.05 1.05 1.05 
214 3 17.5 29.1667 0 0 0 0.108934 0.994049 1.05 1.05 1.05 
215 3 23.3333 29.1667 0 0 0 0.981321 0.192377 1.05 1.05 1.05 
216 3 29.1667 29.1667 0 0 0 0.997734 -0.0672792 1.05 1.05 1.05 
217 3 35 29.1667 0 0 0 0.964549 -0.263904 1.05 1.05 1.05 
218 3 40.8333 29.1667 0 0 0 0.769228 0.638974 1.05 1.05 1.05 
219 3 46.6667 29.1667 0 0 0 0.932374 0.361496 1.05 1.05 1.05 
220 3 52.5 29.1667 0 0 0 0.255388 -0.966839 1.05 1.05 1.05 
221 3 58.3333 29.1667 0 0 0 0.966054 0.258339 1.05 1.05 1.05 
222 3 64.1667 29.1667 0 0 0 0.887212 -0.461362 1.05 1.05 1.05 
223 3 70 29.1667 0 0 0 0.913644 0.406514 1.05 1.05 1.05 
224 3 75.8333 29.1667 0 0 0 0.989952 0.141407 1.05 1.05 1.05 
225 3 81.6667 29.1667 0 0 0 0.932541 0.361065 1.05 1.05 1.05 
226 3 87.5 29.1667 0 0 0 0.980105 0.198478 1.05 1.05 1.05 
227 3 93.3333 29.1667 0 0 0 0.702483 0.7117 1.05 1.05 1.05 
228 3 99.1667 29.1667 0 0 0 0.13127 -0.991347 1.05 1.05 1.05 
229 3 105 29.1667 0 0 0 0.976422 0.215872 1.05 1.05 1.05 
230 3 110.833 29.1667 0 0 0 0.72223 -0.691653 1.05 1.05 1.05 
231 3 116.667 29.1667 0 0 0 0.665065 -0.746785 1.05 1.05 1.05 
232 3 122.5 29.1667 0 0 0 0.00306431 -0.999995 1.05 1.05 1.05 
233 3 128.333 29.1667 0 0 0 0.713549 0.700605 1.05 1.05 1.05 
234 3 134.167 29.1667 0 0 0 0.308164 0.951333 1.05 1.05 1.05 
235 3 140 29.1667 0 0 0 0.998648 -0.0519783 1.05 1.05 1.05 
236 3 145.833 29.1667 0 0 0 0.914845 -0.403806 1.05 1.05 1.05 
237 3 151.667 29.1667 0 0 0 0.956584 -0.291457 1.05 1.05 1.05 
238 3 157.5 29.1667 0 0 0 0.998715 0.0506839 1.05 1.05 1.05 
239 3 163.333 29.1667 0 0 0 0.433775 -0.901021 1.05 1.05 1.05 
240 3 169.167 29.1667 0 0 0 0.749948 -0.661497 1.05 1.05 1.05 
241 3 175 29.1667 0 0 0 0.404893 -0.914364 1.05 1.05 1.05 
242 3 180.833 29.1667 0 0 0 0.235552 0.971862 1.05 1.05 1.05 
243 3 186.667 29.1667 0 0 0 0.515837 -0.856687 1.05 1.05 1.05 
244 3 192.5 29.1667 0 0 0 0.554259 0.832344 1.05 1.05 1.05 
245 3 198.333 29.1667 0 0 0 0.0617751 0.99809 1.05 1.05 1.05 
246 3 204.167 29.1667 0 0 0 0.945824 -0.324679 1.05 1.05 1.05 
247 3 0 35 0 0 0 0.759249 0.6508 1.05 1.05 1.05 
248 3 5.83333 35 0 0 0 0.870928 -0.491411 1.05 1.05 1.05 
249 3 11.6667 35 0 0 0 0.655861 0.754882 1.05 1.05 1.05 
250 3 17.5 35 0 0 0 0.624239 0.781234 1.05 1.05 1.05 
251 3 23.3333 35 0 0 0 0.394022 -0.919101 1.05 1.05 1.05 
252 3 29.1667 35 0 0 0 0.766294 -0.64249 1.05 1.05 1.05 
253 3 35 35 0 0 0 0.343942 -0.938991 1.05 1.05 1.05 
254 3 40.8333 35 0 0 0 0.123127 -0.992391 1.05 1.05 1.05 
255 3 46.6667 35 0 0 0 0.217693 -0.976017 1.05 1.05 1.05 
256 3 52.5 35 0 0 0 0.98993 0.141559 1.05 1.05 1.05 
257 3 58.3333 35 0 0 0 0.910601 0.413287 1.05 1.05 1.05 
258 3 64.1667 35 0 0 0 0.834764 -0.550609 1.05 1.05 1.05 
259 3 70 35 0 0 0 0.867067 0.498192 1.05 1.05 1.05 
260 3 75.8333 35 0 0 0 0.826277 -0.563264 1.05 1.05 1.05 
261 3 81.6667 35 0 0 0 0.373795 -0.927511 1.05 1.05 1.05 
262 3 87.5 35 0 0 0 0.909258 -0.416234 1.05 1.05 1.05 
263 3 93.3333 35 0 0 0 0.809585 0.587002 1.05 1.05 1.05 
264 3 99.1667 35 0 0 0 0.895186 -0.445692 1.05 1.05 1.05 
265 3 105 35 0 0 0 0.963176 -0.268872 1.05 1.05 1.05 
266 3 110.833 35 0 0 0 0.30466 -0.952461 1.05 1.05 1.05 
267 3 116.667 35 0 0 0 0.938597 0.345016 1.05 1.05 1.05 
268 3 122.5 35 0 0 0 0.749393 0.662125 1.05 1.05 1.05 
269 3 128.333 35 0 0 0 0.990175 -0.139837 1.05 1.05 1.05 
270 3 134.167 35 0 0 0 0.371025 0.928623 1.05 1.05 1.05 
271 3 140 35 0 0 0 0.960025 0.279914 1.05 1.05 1.05 
272 3 145.833 35 0 0 0 0.983432 0.18128 1.05 1.05 1.05 
273 3 151.667 35 0 0 0 0.997275 0.073769 1.05 1.05 1.05 
274 3 157.5 35 0 0 0 0.727934 0.685648 1.05 1.05 1.05 
275 3 163.333 35 0 0 0 0.975356 -0.220635 1.05 1.05 1.05 
276 3 169.167 35 0 0 0 0.962253 0.272158 1.05 1.05 1.05 
277 3 175 35 0 0 0 0.563695 -0.825983 1.05 1.05 1.05 
278 3 180.833 35 0 0 0 0.194689 -0.980865 1.05 1.05 1.05 
279 3 186.667 35 0 0 0 0.793117 0.609069 1.05 1.05 1.05 
280 3 192.5 35 0 0 0 0.160959 -0.986961 1.05 1.05 1.05 
281 3 198.333 35 0 0 0 0.600749 0.799438 1.05 1.05 1.05 
282 3 204.167 35 0 0 0 0.732042 -0.681259 1.05 1.05 1.05 
283 3 0 40.8333 0 0 0 0.703291 -0.710902 1.05 1.05 1.05 
284 3 5.83333 40.8333 0 0 0 0.715924 0.698178 1.05 1.05 1.05 
285 3 11.6667 40.8333 0 0 0 0.0799897 -0.996796 1.05 1.05 1.05 
286 3 17.5 40.8333 0 0 0 0.767064 -0.64157 1.05 1.05 1.05 
287 3 23.3333 40.8333 0 0 0 0.338139 -0.941096 1.05 1.05 1.05 
288 3 29.1667 40.8333 0 0 0 0.0505619 -0.998721 1.05 1.05 1.05 
289 3 35 40.8333 0 0 0 0.797701 0.603053 1.05 1.05 1.05 
290 3 40.8333 40.8333 0 0 0 0.405829 -0.913949 1.05 1.05 1.05 
291 3 46.6667 40.8333 0 0 0 0.358605 0.93349 1.05 1.05 1.05 
292 3 52.5 40.8333 0 0 0 0.619201 -0.785232 1.05 1.05 1.05 
293 3 58.3333 40.8333 0 0 0 0.785974 0.61826 1.05 1.05 1.05 
294 3 64.1667 40.8333 0 0 0 0.322464 -0.946582 1.05 1.05 1.05 
295 3 70 40.8333 0 0 0 0.780537 0.62511 1.05 1.05 1.05 
296 3 75.8333 40.8333 0 0 0 0.418836 -0.908062 1.05 1.05 1.05 
297 3 81.6667 40.8333 0 0 0 0.484885 0.874578 1.05 1.05 1.05 
298 3 87.5 40.8333 0 0 0 0.878866 -0.477068 1.05 1.05 1.05 
299 3 93.3333 40.8333 0 0 0 0.344817 0.93867 1.05 1.05 1.05 
300 3 99.1667 40.8333 0 0 0 0.277293 -0.960785 1.05 1.05 1.05 
301 3 105 40.8333 0 0 0 0.444789 0.895635 1.05 1.05 1.05 
302 3 110.833 40.8333 0 0 0 0.47185 0.881679 1.05 1.05 1.05 
303 3 116.667 40.8333 0 0 0 0.945857 0.324582 1.05 1.05 1.05 
304 3 122.5 40.8333 0 0 0 0.162399 0.986725 1.05 1.05 1.05 
305 3 128.333 40.8333 0 0 0 0.184332 -0.982864 1.05 1.05 1.05 
306 3 134.167 40.8333 0 0 0 0.972455 0.233091 1.05 1.05 1.05 
307 3 140 40.8333 0 0 0 0.911965 0.410268 1.05 1.05 1.05 
308 3 145.833 40.8333 0 0 0 0.0829002 -0.996558 1.05 1.05 1.05 
309 3 151.667 40.8333 0 0 0 0.839601 -0.543203 1.05 1.05 1.05 
310 3 157.5 40.8333 0 0 0 0.455891 -0.890036 1.05 1.05 1.05 
311 3 163.333 40.8333 0 0 0 0.650264 -0.759708 1.05 1.05 1.05 
312 3 169.167 40.8333 0 0 0 0.935721 -0.35274 1.05 1.05 1.05 
313 3 175 40.8333 0 0 0 0.957243 0.289286 1.05 1.05 1.05 
314 3 180.833 40.8333 0 0 0 0.783318 -0.621622 1.05 1.05 1.05 
315 3 186.667 40.8333 0 0 0 0.157057 -0.98759 1.05 1.05 1.05 
316 3 192.5 40.8333 0 0 0 0.872184 -0.489178 1.05 1.05 1.05 
317 3 198.333 40.8333 0 0 0 0.72675 -0.686902 1.05 1.05 1.05 
318 3 204.167 40.8333 0 0 0 0.945369 0.326002 1.05 1.05 1.05 
319 3 0 46.6667 0 0 0 0.999703 0.0243852 1.05 1.05 1.05 
320 3 5.83333 46.6667 0 0 0 0.199683 -0.979861 1.05 1.05 1.05 
321 3 11.6667 46.6667 0 0 0 0.521714 0.853121 1.05 1.05 1.05 
322 3 17.5 46.6667 0 0 0 0.901513 0.432752 1.05 1.05 1.05 
323 3 23.3333 46.6667 0 0 0 0.359013 -0.933333 1.05 1.05 1.05 
324 3 29.1667 46.6667 0 0 0 0.4678 -0.883834 1.05 1.05 1.05 
325 3 35 46.6667 0 0 0 0.97637 0.216105 1.05 1.05 1.05 
326 3 40.8333 46.6667 0 0 0 0.45493 -0.890527 1.05 1.05 1.05 
327 3 46.6667 46.6667 0 0 0 0.0539727 0.998542 1.05 1.05 1.05 
328 3 52.5 46.6667 0 0 0 0.503671 0.863896 1.05 1.05 1.05 
329 3 58.3333 46.6667 0 0 0 0.944657 0.328059 1.05 1.05 1.05 
330 3 64.1667 46.6667 0 0 0 0.788151 -0.615482 1.05 1.05 1.05 
331 3 70 46.6667 0 0 0 0.999744 -0.0226256 1.05 1.05 1.05 
332 3 75.8333 46.6667 0 0 0 0.982086 -0.188435 1.05 1.05 1.05 
333 3 81.6667 46.6667 0 0 0 0.935621 -0.353006 1.05 1.05 1.05 
334 3 87.5 46.6667 0 0 0 0.813632 0.58138 1.05 1.05 1.05 
335 3 93.3333 46.6667 0 0 0 0.824114 0.566424 1.05 1.05 1.05 
336 3 99.1667 46.6667 0 0 0 0.403901 -0.914803 1.05 1.05 1.05 
337 3 105 46.6667 0 0 0 0.0558993 0.998436 1.05 1.05 1.05 
338 3 110.833 46.6667 0 0 0 0.47341 -0.880842 1.05 1.05 1.05 
339 3 116.667 46.6667 0 0 0 0.953435 -0.301597 1.05 1.05 1.05 
340 3 122.5 46.6667 0 0 0 0.0756308 0.997136 1.05 1.05 1.05 
341 3 128.333 46.6667 0 0 0 0.984065 0.177807 1.05 1.05 1.05 
342 3 134.167 46.6667 0 0 0 0.560078 0.82844 1.05 1.05 1.05 
343 3 140 46.6667 0 0 0 0.734193 -0.67894 1.05 1.05 1.05 
344 3 145.833 46.6667 0 0 0 0.999782 -0.0208696 1.05 1.05 1.05 
345 3 151.667 46.6667 0 0 0 0.494556 -0.869146 1.05 1.05 1.05 
346 3 157.5 46.6667 0 0 0 0.691536 0.722342 1.05 1.05 1.05 
347 3 163.333 46.6667 0 0 0 0.996105 -0.0881754 1.05 1.05 1.05 
348 3 169.167 46.6667 0 0 0 0.222837 -0.974856 1.05 1.05 1.05 
349 3 175 46.6667 0 0 0 0.771609 0.636097 1.05 1.05 1.05 
350 3 180.833 46.6667 0 0 0 0.882747 -0.469849 1.05 1.05 1.05 
351 3 186.667 46.6667 0 0 0 0.700382 0.713768 1.05 1.05 1.05 
352 3 192.5 46.6667 0 0 0 0.345251 0.93851 1.05 1.05 1.05 
353 3 198.333 46.6667 0 0 0 0.416204 0.909271 1.05 1.05 1.05 
354 3 204.167 46.6667 0 0 0 0.960982 -0.276612 1.05 1.05 1.05 
355 3 0 52.5 0 0 0 0.051858 -0.998654 1.05 1.05 1.05 
356 3 5.83333 52.5 0 0 0 0.726647 0.687011 1.05 1.05 1.05 
357 3 11.6667 52.5 0 0 0 0.500756 -0.865588 1.05 1.05 1.05 
358 3 17.5 52.5 0 0 0 0.77885 0.62721 1.05 1.05 1.05 
359 3 23.3333 52.5 0 0 0 0.992914 0.118835 1.05 1.05 1.05 
360 3 29.1667 52.5 0 0 0 0.606879 0.794794 1.05 1.05 1.05 
361 3 35 52.5 0 0 0 0.83404 0.551704 1.05 1.05 1.05 
362 3 40.8333 52.5 0 0 0 0.144585 0.989492 1.05 1.05 1.05 
363 3 46.6667 52.5 0 0 0 0.881763 -0.471693 1.05 1.05 1.05 
364 3 52.5 52.5 0 0 0 0.214943 0.976627 1.05 1.05 1.05 
365 3 58.3333 52.5 0 0 0 0.466654 0.88444 1.05 1.05 1.05 
366 3 64.1667 52.5 0 0 0 0.391416 -0.920214 1.05 1.05 1.05 
367 3 70 52.5 0 0 0 0.430897 -0.902401 1.05 1.05 1.05 
368 3 75.8333 52.5 0 0 0 0.0375224 -0.999296 1.05 1.05 1.05 
369 3 81.6667 52.5 0 0 0 0.921526 -0.388316 1.05 1.05 1.05 
370 3 87.5 52.5 0 0 0 0.405684 0.914013 1.05 1.05 1.05 
371 3 93.3333 52.5 0 0 0 0.920661 -0.390363 1.05 1.05 1.05 
372 3 99.1667 52.5 0 0 0 0.102712 -0.994711 1.05 1.05 1.05 
373 3 105 52.5 0 0 0 0.871616 -0.49019 1.05 1.05 1.05 
374 3 110.833 52.5 0 0 0 0.924212 0.381879 1.05 1.05 1.05 
375 3 116.667 52.5 0 0 0 0.770347 0.637625 1.05 1.05 1.05 
376 3 122.5 52.5 0 0 0 0.483864 -0.875143 1.05 1.05 1.05 
377 3 128.333 52.5 0 0 0 0.432249 0.901754 1.05 1.05 1.05 
378 3 134.167 52.5 0 0 0 0.193489 0.981102 1.05 1.05 1.05 
379 3 140 52.5 0 0 0 0.982466 -0.186442 1.05 1.05 1.05 
380 3 145.833 52.5 0 0 0 0.574966 -0.818177 1.05 1.05 1.05 
381 3 151.667 52.5 0 0 0 0.950464 0.310834 1.05 1.05 1.05 
382 3 157.5 52.5 0 0 0 0.82146 -0.570266 1.05 1.05 1.05 
383 3 163.333 52.5 0 0 0 0.961342 0.275358 1.05 1.05 1.05 
384 3 169.167 52.5 0 0 0 0.811692 0.584086 1.05 1.05 1.05 
385 3 175 52.5 0 0 0 0.816752 0.576989 1.05 1.05 1.05 
386 3 180.833 52.5 0 0 0 0.465007 0.885307 1.05 1.05 1.05 
387 3 186.667 52.5 0 0 0 0.675929 -0.736966 1.05 1.05 1.05 
388 3 192.5 52.5 0 0 0 0.99677 -0.0803063 1.05 1.05 1.05 
389 3 198.333 52.5 0 0 0 0.215177 0.976575 1.05 1.05 1.05 
390 3 204.167 52.5 0 0 0 0.977993 -0.208637 1.05 1.05 1.05 
391 3 0 58.3333 0 0 0 0.620323 0.784346 1.05 1.05 1.05 
392 3 5.83333 58.3333 0 0 0 0.537181 0.843467 1.05 1.05 1.05 
393 3 11.6667 58.3333 0 0 0 0.435567 -0.900157 1.05 1.05 1.05 
394 3 17.5 58.3333 0 0 0 0.712006 -0.702173 1.05 1.05 1.05 
395 3 23.3333 58.3333 0 0 0 0.738106 -0.674685 1.05 1.05 1.05 
396 3 29.1667 58.3333 0 0 0 0.334155 -0.942518 1.05 1.05 1.05 
397 3 35 58.3333 0 0 0 0.929851 0.367937 1.05 1.05 1.05 
398 3 40.8333 58.3333 0 0 0 0.0597035 0.998216 1.05 1.05 1.05 
399 3 46.6667 58.3333 0 0 0 0.542888 0.839805 1.05 1.05 1.05 
400 3 52.5 58.3333 0 0 0 0.00773402 0.99997 1.05 1.05 1.05 
401 3 58.3333 58.3333 0 0 0 0.135245 -0.990812 1.05 1.05 1.05 
402 3 64.1667 58.3333 0 0 0 0.562081 0.827082 1.05 1.05 1.05 
403 3 70 58.3333 0 0 0 0.3447 -0.938713 1.05 1.05 1.05 
404 3 75.8333 58.3333 0 0 0 0.938939 -0.344084 1.05 1.05 1.05 
405 3 81.6667 58.3333 0 0 0 0.756322 -0.6542 1.05 1.05 1.05 
406 3 87.5 58.3333 0 0 0 0.463319 0.886192 1.05 1.05 1.05 
407 3 93.3333 58.3333 0 0 0 0.512161 -0.858889 1.05 1.05 1.05 
408 3 99.1667 58.3333 0 0 0 0.77749 0.628896 1.05 1.05 1.05 
409 3 105 58.3333 0 0 0 0.734565 -0.678539 1.05 1.05 1.05 
410 3 110.833 58.3333 0 0 0 0.97548 0.22009 1.05 1.05 1.05 
411 3 116.667 58.3333 0 0 0 0.98427 -0.176672 1.05 1.05 1.05 
412 3 122.5 58.3333 0 0 0 0.910578 -0.413337 1.05 1.05 1.05 
413 3 128.333 58.3333 0 0 0 0.0826779 0.996576 1.05 1.05 1.05 
414 3 134.167 58.3333 0 0 0 0.75889 -0.651218 1.05 1.05 1.05 
415 3 140 58.3333 0 0 0 0.256705 -0.96649 1.05 1.05 1.05 
416 3 145.833 58.3333 0 0 0 0.772183 0.635401 1.05 1.05 1.05 
417 3 151.667 58.3333 0 0 0 0.997761 -0.0668807 1.05 1.05 1.05 
418 3 157.5 58.3333 0 0 0 0.102149 0.994769 1.05 1.05 1.05 
419 3 163.333 58.3333 0 0 0 0.958411 0.285393 1.05 1.05 1.05 
420 3 169.167 58.3333 0 0 0 0.605764 0.795644 1.05 1.05 1.05 
421 3 175 58.3333 0 0 0 0.939672 0.342076 1.05 1.05 1.05 
422 3 180.833 58.3333 0 0 0 0.999998 0.00210517 1.05 1.05 1.05 
423 3 186.667 58.3333 0 0 0 0.54725 -0.836969 1.05 1.05 1.05 
424 3 192.5 58.3333 0 0 0 0.452103 0.891966 1.05 1.05 1.05 
425 3 198.333 58.3333 0 0 0 0.916048 -0.401068 1.05 1.05 1.05 
426 3 204.167 58.3333 0 0 0 0.466441 0.884553 1.05 1.05 1.05 
427 3 0 64.1667 0 0 0 0.998178 0.0603332 1.05 1.05 1.05 
428 3 5.83333 64.1667 0 0 0 0.257967 0.966154 1.05 1.05 1.05 
429 3 11.6667 64.1667 0 0 0 0.857785 -0.514009 1.05 1.05 1.05 
430 3 17.5 64.1667 0 0 0 0.997668 0.0682482 1.05 1.05 1.05 
431 3 23.3333 64.1667 0 0 0 0.827493 0.561477 1.05 1.05 1.05 
432 3 29.1667 64.1667 0 0 0 0.86806 0.496459 1.05 1.05 1.05 
433 3 35 64.1667 0 0 0 0.443671 -0.89619 1.05 1.05 1.05 
434 3 40.8333 64.1667 0 0 0 0.940564 0.339618 1.05 1.05 1.05 
435 3 46.6667 64.1667 0 0 0 0.338841 -0.940843 1.05 1.05 1.05 
436 3 52.5 64.1667 0 0 0 0.536436 0.843941 1.05 1.05 1.05 
437 3 58.3333 64.1667 0 0 0 0.714693 -0.699438 1.05 1.05 1.05 
438 3 64.1667 64.1667 0 0 0 0.819322 -0.573334 1.05 1.05 1.05 
439 3 70 64.1667 0 0 0 0.8712 -0.490929 1.05 1.05 1.05 
440 3 75.8333 64.1667 0 0 0 0.551849 -0.833944 1.05 1.05 1.05 
441 3 81.6667 64.1667 0 0 0 0.977149 0.212556 1.05 1.05 1.05 
442 3 87.5 64.1667 0 0 0 0.849389 -0.527768 1.05 1.05 1.05 
443 3 93.3333 64.1667 0 0 0 0.416795 -0.909001 1.05 1.05 1.05 
444 3 99.1667 64.1667 0 0 0 0.0104038 -0.999946 1.05 1.05 1.05 
445 3 105 64.1667 0 0 0 0.624379 -0.781122 1.05 1.05 1.05 
446 3 110.833 64.1667 0 0 0 0.262404 -0.964958 1.05 1.05 1.05 
447 3 116.667 64.1667 0 0 0 0.729853 0.683604 1.05 1.05 1.05 
448 3 122.5 64.1667 0 0 0 0.0531623 -0.998586 1.05 1.05 1.05 
449 3 128.333 64.1667 0 0 0 0.799397 0.600804 1.05 1.05 1.05 
450 3 134.167 64.1667 0 0 0 0.826649 0.562718 1.05 1.05 1.05 
451 3 140 64.1667 0 0 0 0.942733 0.333549 1.05 1.05 1.05 
452 3 145.833 64.1667 0 0 0 0.106146 -0.994351 1.05 1.05 1.05 
453 3 151.667 64.1667 0 0 0 0.85564 0.517571 1.05 1.05 1.05 
454 3 157.5 64.1667 0 0 0 0.31552 -0.948919 1.05 1.05 1.05 
455 3 163.333 64.1667 0 0 0 0.704627 0.709578 1.05 1.05 1.05 
456 3 169.167 64.1667 0 0 0 0.825752 -0.564034 1.05 1.05 1.05 
457 3 175 64.1667 0 0 0 0.934029 -0.357198 1.05 1.05 1.05 
458 3 180.833 64.1667 0 0 0 0.996135 -0.0878389 1.05 1.05 1.05 
459 3 186.667 64.1667 0 0 0 0.0323725 -0.999476 1.05 1.05 1.05 
460 3 192.5 64.1667 0 0 0 0.396414 0.918072 1.05 1.05 1.05 
461 3 198.333 64.1667 0 0 0 0.346992 -0.937868 1.05 1.05 1.05 
462 3 204.167 64.1667 0 0 0 0.986071 0.166326 1.05 1.05 1.05 
463 3 0 70 0 0 0 0.95979 -0.280718 1.05 1.05 1.05 
464 3 5.83333 70 0 0 0 0.999581 -0.0289309 1.05 1.05 1.05 
465 3 11.6667 70 0 0 0 0.998126 0.0611872 1.05 1.05 1.05 
466 3 17.5 70 0 0 0 0.962992 -0.269531 1.05 1.05 1.05 
467 3 23.3333 70 0 0 0 0.37071 0.928748 1.05 1.05 1.05 
468 3 29.1667 70 0 0 0 0.980091 -0.198548 1.05 1.05 1.05 
469 3 35 70 0 0 0 0.90824 -0.418449 1.05 1.05 1.05 
470 3 40.8333 70 0 0 0 0.699664 -0.714472 1.05 1.05 1.05 
471 3 46.6667 70 0 0 0 0.353607 0.935394 1.05 1.05 1.05 
472 3 52.5 70 0 0 0 0.938621 -0.344949 1.05 1.05 1.05 
473 3 58.3333 70 0 0 0 0.709527 -0.704678 1.05 1.05 1.05 
474 3 64.1667 70 0 0 0 0.863134 -0.504975 1.05 1.05 1.05 
475 3 70 70 0 0 0 0.998919 -0.0464743 1.05 1.05 1.05 
476 3 75.8333 70 0 0 0 0.166482 0.986045 1.05 1.05 1.05 
477 3 81.6667 70 0 0 0 0.876128 0.482078 1.05 1.05 1.05 
478 3 87.5 70 0 0 0 0.598307 -0.801267 1.05 1.05 1.05 
479 3 93.3333 70 0 0 0 0.965232 -0.261394 1.05 1.05 1.05 
480 3 99.1667 70 0 0 0 0.230396 0.973097 1.05 1.05 1.05 
481 3 105 70 0 0 0 0.599879 -0.800091 1.05 1.05 1.05 
482 3 110.833 70 0 0 0 0.564803 -0.825226 1.05 1.05 1.05 
483 3 116.667 70 0 0 0 0.870943 0.491385 1.05 1.05 1.05 
484 3 122.5 70 0 0 0 0.761406 0.648275 1.05 1.05 1.05 
485 3 128.333 70 0 0 0 0.0972094 -0.995264 1.05 1.05 1.05 
486 3 134.167 70 0 0 0 0.995519 0.0945605 1.05 1.05 1.05 
487 3 140 70 0 0 0 0.339773 0.940507 1.05 1.05 1.05 
488 3 145.833 70 0 0 0 0.998651 -0.0519264 1.05 1.05 1.05 
489 3 151.667 70 0 0 0 0.614957 0.788561 1.05 1.05 1.05 
490 3 157.5 70 0 0 0 0.983504 0.180887 1.05 1.05 1.05 
491 3 163.333 70 0 0 0 0.832698 0.553727 1.05 1.05 1.05 
492 3 169.167 70 0 0 0 0.676123 -0.736789 1.05 1.05 1.05 
493 3 175 70 0 0 0 0.128939 0.991653 1.05 1.05 1.05 
494 3 180.833 70 0 0 0 0.99695 -0.0780439 1.05 1.05 1.05 
495 3 186.667 70 0 0 0 0.27887 -0.960329 1.05 1.05 1.05 
496 3 192.5 70 0 0 0 0.754863 0.655883 1.05 1.05 1.05 
497 3 198.333 70 0 0 0 0.120086 -0.992763 1.05 1.05 1.05 
498 3 204.167 70 0 0 0 0.940704 -0.339228 1.05 1.05 1.05 
499 3 0 75.8333 0 0 0 0.442653 -0.896693 1.05 1.05 1.05 
500 3 5.83333 75.8333 0 0 0 0.250439 -0.968132 1.05 1.05 1.05 
501 3 11.6667 75.8333 0 0 0 0.968848 -0.247655 1.05 1.05 1.05 
502 3 17.5 75.8333 0 0 0 0.883077 -0.469228 1.05 1.05 1.05 
503 3 23.3333 75.8333 0 0 0 0.791552 0.611102 1.05 1.05 1.05 
504 3 29.1667 75.8333 0 0 0 0.989358 0.145505 1.05 1.05 1.05 
505 3 35 75.8333 0 0 0 0.161873 -0.986812 1.05 1.05 1.05 
506 3 40.8333 75.8333 0 0 0 0.961504 -0.274792 1.05 1.05 1.05 
507 3 46.6667 75.8333 0 0 0 0.583335 0.812232 1.05 1.05 1.05 