ITEM: TIMESTEP
0
ITEM: NUMBER OF ATOMS
106
ITEM: BOX BOUNDS pp pp pp
0.0000000000000000e+00 2.1000000000000000e+02
0.0000000000000000e+00 2.1000000000000000e+02
-5.0000000000000000e-01 5.0000000000000000e-01
ITEM: ATOMS id type x y z c_orient[1] c_orient[2] c_orient[3] c_orient[4] c_shape[1] c_shape[2] c_shape[3] 
1 1 104.432 107.64 0 0 0 0 1 0.5 0.5 0.5 
2 1 104.992 106.752 0 0 0 0 1 0.5 0.5 0.5 
3 1 105.551 105.863 0 0 0 0 1 0.5 0.5 0.5 
4 1 106.109 104.974 0 0 0 0 1 0.5 0.5 0.5 
5 1 106.666 104.084 0 0 0 0 1 0.5 0.5 0.5 
6 1 107.222 103.193 0 0 0 0 1 0.5 0.5 0.5 
7 1 107.775 102.301 0 0 0 0 1 0.5 0.5 0.5 
8 1 108.327 101.407 0 0 0 0 1 0.5 0.5 0.5 
9 1 108.875 100.512 0 0 0 0 1 0.5 0.5 0.5 
10 1 109.422 99.6156 0 0 0 0 1 0.5 0.5 0.5 
11 1 109.966 98.7181 0 0 0 0 1 0.5 0.5 0.5 
12 1 110.509 97.8197 0 0 0 0 1 0.5 0.5 0.5 
13 1 111.052 96.9213 0 0 0 0 1 0.5 0.5 0.5 
14 1 111.596 96.0233 0 0 0 0 1 0.5 0.5 0.5 
15 1 112.142 95.1267 0 0 0 0 1 0.5 0.5 0.5 
16 1 112.692 94.2324 0 0 0 0 1 0.5 0.5 0.5 
17 1 113.247 93.3412 0 0 0 0 1 0.5 0.5 0.5 
18 1 113.808 92.4538 0 0 0 0 1 0.5 0.5 0.5 
19 1 114.376 91.5709 0 0 0 0 1 0.5 0.5 0.5 
20 1 114.951 90.6927 0 0 0 0 1 0.5 0.5 0.5 
21 1 115.534 89.8197 0 0 0 0 1 0.5 0.5 0.5 
22 1 116.124 88.9513 0 0 0 0 1 0.5 0.5 0.5 
23 1 116.72 88.0871 0 0 0 0 1 0.5 0.5 0.5 
24 1 117.321 87.2267 0 0 0 0 1 0.5 0.5 0.5 
25 1 117.926 86.3691 0 0 0 0 1 0.5 0.5 0.5 
26 1 118.535 85.5136 0 0 0 0 1 0.5 0.5 0.5 
27 1 119.146 84.6597 0 0 0 0 1 0.5 0.5 0.5 
28 1 119.758 83.8066 0 0 0 0 1 0.5 0.5 0.5 
29 1 120.371 82.954 0 0 0 0 1 0.5 0.5 0.5 
30 2 120.984 82.1017 0 0 0 0 1 0.5 0.5 0.5 
31 3 0 0 0 0 0 0.828817 0.559519 5.55 5.55 5.55 
32 3 22.2222 0 0 0 0 0.9647 -0.263351 5.55 5.55 5.55 
33 3 44.4444 0 0 0 0 0.911258 -0.411837 5.55 5.55 5.55 
34 3 66.6667 0 0 0 0 0.760501 -0.649336 5.55 5.55 5.55 
35 3 88.8889 0 0 0 0 0.550359 -0.834928 5.55 5.55 5.55 
36 3 111.111 0 0 0 0 0.968081 0.250638 5.55 5.55 5.55 
37 3 133.333 0 0 0 0 0.943124 -0.332441 5.55 5.55 5.55 
38 3 155.556 0 0 0 0 0.461865 -0.88695 5.55 5.55 5.55 
39 3 177.778 0 0 0 0 0.600848 -0.799364 5.55 5.55 5.55 
40 3 0 22.2222 0 0 0 0.897554 -0.440905 5.55 5.55 5.55 
41 3 22.2222 22.2222 0 0 0 0.771441 0.636301 5.55 5.55 5.55 
42 3 44.4444 22.2222 0 0 0 0.595775 0.803152 5.55 5.55 5.55 
43 3 66.6667 22.2222 0 0 0 0.636799 -0.771029 5.55 5.55 5.55 
44 3 88.8889 22.2222 0 0 0 0.26972 0.962939 5.55 5.55 5.55 
45 3 111.111 22.2222 0 0 0 0.974611 0.223905 5.55 5.55 5.55 
46 3 133.333 22.2222 0 0 0 0.891035 0.453934 5.55 5.55 5.55 
47 3 155.556 22.2222 0 0 0 0.987945 -0.154808 5.55 5.55 5.55 
48 3 177.778 22.2222 0 0 0 0.763139 -0.646234 5.55 5.55 5.55 
49 3 0 44.4444 0 0 0 0.12849 0.991711 5.55 5.55 5.55 
50 3 22.2222 44.4444 0 0 0 0.977651 0.210236 5.55 5.55 5.55 
51 3 44.4444 44.4444 0 0 0 0.462746 -0.886491 5.55 5.55 5.55 
52 3 66.6667 44.4444 0 0 0 0.0498572 -0.998756 5.55 5.55 5.55 
53 3 88.8889 44.4444 0 0 0 0.925545 -0.378638 5.55 5.55 5.55 
54 3 111.111 44.4444 0 0 0 0.850507 -0.525963 5.55 5.55 5.55 
55 3 133.333 44.4444 0 0 0 0.786421 0.617691 5.55 5.55 5.55 
56 3 155.556 44.4444 0 0 0 0.6862 -0.727413 5.55 5.55 5.55 
57 3 177.778 44.4444 0 0 0 0.468458 -0.883486 5.55 5.55 5.55 
58 3 0 66.6667 0 0 0 0.582558 -0.812789 5.55 5.55 5.55 
59 3 22.2222 66.6667 0 0 0 0.881916 -0.471407 5.55 5.55 5.55 
60 3 44.4444 66.6667 0 0 0 0.34547 -0.93843 5.55 5.55 5.55 
61 3 66.6667 66.6667 0 0 0 0.781988 0.623294 5.55 5.55 5.55 
62 3 88.8889 66.6667 0 0 0 0.578977 -0.815344 5.55 5.55 5.55 
63 3 111.111 66.6667 0 0 0 0.999999 -0.00149942 5.55 5.55 5.55 
64 3 133.333 66.6667 0 0 0 0.74994 0.661506 5.55 5.55 5.55 
65 3 155.556 66.6667 0 0 0 0.103179 0.994663 5.55 5.55 5.55 
66 3 177.778 66.6667 0 0 0 0.0531385 -0.998587 5.55 5.55 5.55 
67 3 0 88.8889 0 0 0 0.74273 -0.669591 5.55 5.55 5.55 
68 3 22.2222 88.8889 0 0 0 0.398136 0.917326 5.55 5.55 5.55 
69 3 44.4444 88.8889 0 0 0 0.472061 -0.881566 5.55 5.55 5.55 
70 3 66.6667 88.8889 0 0 0 0.417803 -0.908538 5.55 5.55 5.55 
71 3 88.8889 88.8889 0 0 0 0.957749 0.287604 5.55 5.55 5.55 
72 3 111.474 89.1735 0 0 0 0.945211 0.326459 5.55 5.55 5.55 
73 3 133.333 88.8889 0 0 0 0.12346 0.992349 5.55 5.55 5.55 
74 3 155.556 88.8889 0 0 0 0.337768 0.941229 5.55 5.55 5.55 
75 3 177.778 88.8889 0 0 0 0.991303 -0.1316 5.55 5.55 5.55 
76 3 0 111.111 0 0 0 0.0751338 -0.997173 5.55 5.55 5.55 
77 3 22.2222 111.111 0 0 0 0.235382 0.971903 5.55 5.55 5.55 
78 3 44.4444 111.111 0 0 0 0.845231 -0.5344 5.55 5.55 5.55 
79 3 66.6667 111.111 0 0 0 0.412582 -0.910921 5.55 5.55 5.55 
80 3 88.8889 111.111 0 0 0 0.489259 -0.872138 5.55 5.55 5.55 
81 3 111.108 111.108 0 0 0 0.958813 -0.284037 5.55 5.55 5.55 
82 3 133.333 111.111 0 0 0 0.999794 -0.0203203 5.55 5.55 5.55 
83 3 155.556 111.111 0 0 0 0.336438 0.941705 5.55 5.55 5.55 
84 3 177.778 111.111 0 0 0 0.956901 -0.290413 5.55 5.55 5.55 
85 3 0 133.333 0 0 0 0.301163 -0.953573 5.55 5.55 5.55 
86 3 22.2222 133.333 0 0 0 0.381047 -0.924556 5.55 5.55 5.55 
87 3 44.4444 133.333 0 0 0 0.93861 -0.344981 5.55 5.55 5.55 
88 3 66.6667 133.333 0 0 0 0.986663 -0.162776 5.55 5.55 5.55 
89 3 88.8889 133.333 0 0 0 0.0264195 0.999651 5.55 5.55 5.55 
90 3 111.111 133.333 0 0 0 0.671603 0.740911 5.55 5.55 5.55 
91 3 133.333 133.333 0 0 0 0.889514 0.456908 5.55 5.55 5.55 
92 3 155.556 133.333 0 0 0 0.826768 -0.562543 5.55 5.55 5.55 
93 3 177.778 133.333 0 0 0 0.975814 0.218602 5.55 5.55 5.55 
94 3 0 155.556 0 0 0 0.714501 -0.699634 5.55 5.55 5.55 
95 3 22.2222 155.556 0 0 0 0.887312 0.46117 5.55 5.55 5.55 
96 3 44.4444 155.556 0 0 0 0.665127 -0.74673 5.55 5.55 5.55 
97 3 66.6667 155.556 0 0 0 0.651166 -0.758935 5.55 5.55 5.55 
98 3 88.8889 155.556 0 0 0 0.678446 -0.73465 5.55 5.55 5.55 
99 3 111.111 155.556 0 0 0 0.961857 -0.273554 5.55 5.55 5.55 
100 3 133.333 155.556 0 0 0 0.483279 0.875466 5.55 5.55 5.55 
101 3 155.556 155.556 0 0 0 0.978221 -0.207565 5.55 5.55 5.55 
102 3 177.778 155.556 0 0 0 0.960672 0.277685 5.55 5.55 5.55 
103 3 0 177.778 0 0 0 0.165046 0.986286 5.55 5.55 5.55 
104 3 22.2222 177.778 0 0 0 0.676497 0.736446 5.55 5.55 5.55 
105 3 44.4444 177.778 0 0 0 0.724258 -0.68953 5.55 5.55 5.55 
106 3 66.6667 177.778 0 0 0 0.963947 0.266096 5.55 5.55 5.55 
ITEM: TIMESTEP
1000
ITEM: NUMBER OF ATOMS
106
ITEM: BOX BOUNDS pp pp pp
0.0000000000000000e+00 1.9900000000000000e+02
0.0000000000000000e+00 1.9900000000000000e+02
-5.0000000000000000e-01 5.0000000000000000e-01
ITEM: ATOMS id type x y z c_orient[1] c_orient[2] c_orient[3] c_orient[4] c_shape[1] c_shape[2] c_shape[3] 
1 1 98.6385 102.917 0 0 0 0 1 0.5 0.5 0.5 
2 1 99.1633 102 0 0 0 0 1 0.5 0.5 0.5 
3 1 99.6462 101.083 0 0 0 0 1 0.5 0.5 0.5 
4 1 100.133 100.119 0 0 0 0 1 0.5 0.5 0.5 
5 1 100.642 99.1959 0 0 0 0 1 0.5 0.5 0.5 
6 1 101.214 98.2923 0 0 0 0 1 0.5 0.5 0.5 
7 1 101.777 97.3834 0 0 0 0 1 0.5 0.5 0.5 
8 1 102.366 96.4756 0 0 0 0 1 0.5 0.5 0.5 
9 1 102.889 95.5449 0 0 0 0 1 0.5 0.5 0.5 
10 1 103.463 94.6363 0 0 0 0 1 0.5 0.5 0.5 
11 1 104.042 93.7355 0 0 0 0 1 0.5 0.5 0.5 
12 1 104.589 92.8177 0 0 0 0 1 0.5 0.5 0.5 
13 1 105.158 91.9235 0 0 0 0 1 0.5 0.5 0.5 
14 1 105.649 90.9945 0 0 0 0 1 0.5 0.5 0.5 
15 1 106.21 90.1036 0 0 0 0 1 0.5 0.5 0.5 
16 1 106.779 89.2115 0 0 0 0 1 0.5 0.5 0.5 
17 1 107.35 88.3267 0 0 0 0 1 0.5 0.5 0.5 
18 1 107.953 87.4605 0 0 0 0 1 0.5 0.5 0.5 
19 1 108.531 86.5803 0 0 0 0 1 0.5 0.5 0.5 
20 1 109.145 85.7211 0 0 0 0 1 0.5 0.5 0.5 
21 1 109.759 84.8764 0 0 0 0 1 0.5 0.5 0.5 
22 1 110.368 84.0021 0 0 0 0 1 0.5 0.5 0.5 
23 1 110.959 83.1386 0 0 0 0 1 0.5 0.5 0.5 
24 1 111.547 82.2512 0 0 0 0 1 0.5 0.5 0.5 
25 1 112.127 81.3862 0 0 0 0 1 0.5 0.5 0.5 
26 1 112.699 80.4955 0 0 0 0 1 0.5 0.5 0.5 
27 1 113.269 79.6138 0 0 0 0 1 0.5 0.5 0.5 
28 1 113.853 78.7479 0 0 0 0 1 0.5 0.5 0.5 
29 1 114.406 77.8429 0 0 0 0 1 0.5 0.5 0.5 
30 2 114.957 76.9494 0 0 0 0 1 0.5 0.5 0.5 
31 3 198.85 197.559 0 0 0 0.828817 0.559519 5.55 5.55 5.55 
32 3 18.1003 2.10728 0 0 0 0.9647 -0.263351 5.55 5.55 5.55 
33 3 39.595 195.906 0 0 0 0.911258 -0.411837 5.55 5.55 5.55 
34 3 59.377 197.712 0 0 0 0.760501 -0.649336 5.55 5.55 5.55 
35 3 81.4777 197.416 0 0 0 0.550359 -0.834928 5.55 5.55 5.55 
36 3 106.563 2.66337 0 0 0 0.968081 0.250638 5.55 5.55 5.55 
37 3 121.829 4.55495 0 0 0 0.943124 -0.332441 5.55 5.55 5.55 
38 3 147.626 2.951 0 0 0 0.461865 -0.88695 5.55 5.55 5.55 
39 3 163.701 3.31724 0 0 0 0.600848 -0.799364 5.55 5.55 5.55 
40 3 196.482 18.6885 0 0 0 0.897554 -0.440905 5.55 5.55 5.55 
41 3 17.847 20.7621 0 0 0 0.771441 0.636301 5.55 5.55 5.55 
42 3 44.2189 16.8494 0 0 0 0.595775 0.803152 5.55 5.55 5.55 
43 3 66.6971 25.0009 0 0 0 0.636799 -0.771029 5.55 5.55 5.55 
44 3 84.0938 24.463 0 0 0 0.26972 0.962939 5.55 5.55 5.55 
45 3 105.165 18.2415 0 0 0 0.974611 0.223905 5.55 5.55 5.55 
46 3 126.485 18.6784 0 0 0 0.891035 0.453934 5.55 5.55 5.55 
47 3 146.333 23.8216 0 0 0 0.987945 -0.154808 5.55 5.55 5.55 
48 3 164.636 19.3752 0 0 0 0.763139 -0.646234 5.55 5.55 5.55 
49 3 3.32297 43.2322 0 0 0 0.12849 0.991711 5.55 5.55 5.55 
50 3 24.5256 38.3625 0 0 0 0.977651 0.210236 5.55 5.55 5.55 
51 3 37.5742 41.6636 0 0 0 0.462746 -0.886491 5.55 5.55 5.55 
52 3 65.8854 37.3188 0 0 0 0.0498572 -0.998756 5.55 5.55 5.55 
53 3 80.6121 42.1818 0 0 0 0.925545 -0.378638 5.55 5.55 5.55 
54 3 101.367 37.5092 0 0 0 0.850507 -0.525963 5.55 5.55 5.55 
55 3 123.733 43.7197 0 0 0 0.786421 0.617691 5.55 5.55 5.55 
56 3 143.039 44.7798 0 0 0 0.6862 -0.727413 5.55 5.55 5.55 
57 3 171.768 41.349 0 0 0 0.468458 -0.883486 5.55 5.55 5.55 
58 3 194.282 61.7896 0 0 0 0.582558 -0.812789 5.55 5.55 5.55 
59 3 21.0583 63.5948 0 0 0 0.881916 -0.471407 5.55 5.55 5.55 
60 3 39.6755 59.455 0 0 0 0.34547 -0.93843 5.55 5.55 5.55 
61 3 62.8739 67.0854 0 0 0 0.781988 0.623294 5.55 5.55 5.55 
62 3 87.8153 58.3608 0 0 0 0.578977 -0.815344 5.55 5.55 5.55 
63 3 107.432 60.4729 0 0 0 0.999999 -0.00149942 5.55 5.55 5.55 
64 3 128.154 65.1802 0 0 0 0.74994 0.661506 5.55 5.55 5.55 
65 3 148.159 58.3547 0 0 0 0.103179 0.994663 5.55 5.55 5.55 
66 3 173.192 58.5008 0 0 0 0.0531385 -0.998587 5.55 5.55 5.55 
67 3 2.45894 82.4586 0 0 0 0.74273 -0.669591 5.55 5.55 5.55 
68 3 26.2842 89.1199 0 0 0 0.398136 0.917326 5.55 5.55 5.55 
69 3 42.8302 86.1552 0 0 0 0.472061 -0.881566 5.55 5.55 5.55 
70 3 64.2826 81.8987 0 0 0 0.417803 -0.908538 5.55 5.55 5.55 
71 3 80.7334 86.6077 0 0 0 0.957749 0.287604 5.55 5.55 5.55 
72 3 109.256 87.0375 0 0 0 0.945211 0.326459 5.55 5.55 5.55 
73 3 130.657 82.8417 0 0 0 0.12346 0.992349 5.55 5.55 5.55 
74 3 149.604 83.1005 0 0 0 0.337768 0.941229 5.55 5.55 5.55 
75 3 167.606 86.9439 0 0 0 0.991303 -0.1316 5.55 5.55 5.55 
76 3 2.51194 108.509 0 0 0 0.0751338 -0.997173 5.55 5.55 5.55 
77 3 21.991 102.215 0 0 0 0.235382 0.971903 5.55 5.55 5.55 
78 3 38.8533 109.515 0 0 0 0.845231 -0.5344 5.55 5.55 5.55 
79 3 68.0827 102.306 0 0 0 0.412582 -0.910921 5.55 5.55 5.55 
80 3 87.4633 109.896 0 0 0 0.489259 -0.872138 5.55 5.55 5.55 
81 3 101.595 101.548 0 0 0 0.958813 -0.284037 5.55 5.55 5.55 
82 3 129.647 104.026 0 0 0 0.999794 -0.0203203 5.55 5.55 5.55 
83 3 147.965 107.23 0 0 0 0.336438 0.941705 5.55 5.55 5.55 
84 3 172.167 101.633 0 0 0 0.956901 -0.290413 5.55 5.55 5.55 
85 3 197.751 122.199 0 0 0 0.301163 -0.953573 5.55 5.55 5.55 
86 3 20.0412 125.914 0 0 0 0.381047 -0.924556 5.55 5.55 5.55 
87 3 38.9744 129.45 0 0 0 0.93861 -0.344981 5.55 5.55 5.55 
88 3 60.4695 129.185 0 0 0 0.986663 -0.162776 5.55 5.55 5.55 
89 3 83.4955 123.881 0 0 0 0.0264195 0.999651 5.55 5.55 5.55 
90 3 100.53 123.417 0 0 0 0.671603 0.740911 5.55 5.55 5.55 
91 3 131.158 125.103 0 0 0 0.889514 0.456908 5.55 5.55 5.55 
92 3 143.6 125.325 0 0 0 0.826768 -0.562543 5.55 5.55 5.55 
93 3 167.19 129.182 0 0 0 0.975814 0.218602 5.55 5.55 5.55 
94 3 0.051463 144.771 0 0 0 0.714501 -0.699634 5.55 5.55 5.55 
95 3 18.0442 151.959 0 0 0 0.887312 0.46117 5.55 5.55 5.55 
96 3 46.904 146.362 0 0 0 0.665127 -0.74673 5.55 5.55 5.55 
97 3 60.7239 150.525 0 0 0 0.651166 -0.758935 5.55 5.55 5.55 
98 3 87.7639 144.644 0 0 0 0.678446 -0.73465 5.55 5.55 5.55 
99 3 100.861 150.236 0 0 0 0.961857 -0.273554 5.55 5.55 5.55 
100 3 130.381 151.72 0 0 0 0.483279 0.875466 5.55 5.55 5.55 
101 3 151.645 147.145 0 0 0 0.978221 -0.207565 5.55 5.55 5.55 
102 3 169.369 147.072 0 0 0 0.960672 0.277685 5.55 5.55 5.55 
103 3 4.86827 168.3 0 0 0 0.165046 0.986286 5.55 5.55 5.55 
104 3 21.7061 171.834 0 0 0 0.676497 0.736446 5.55 5.55 5.55 
105 3 42.7042 170.084 0 0 0 0.724258 -0.68953 5.55 5.55 5.55 
106 3 61.6866 172.47 0 0 0 0.963947 0.266096 5.55 5.55 5.55 
ITEM: TIMESTEP
2000
ITEM: NUMBER OF ATOMS
106
ITEM: BOX BOUNDS pp pp pp
0.0000000000000000e+00 1.8800000000000000e+02
0.0000000000000000e+00 1.8800000000000000e+02
-5.0000000000000000e-01 5.0000000000000000e-01
ITEM: ATOMS id type x y z c_orient[1] c_orient[2] c_orient[3] c_orient[4] c_shape[1] c_shape[2] c_shape[3] 
1 1 92.8942 97.673 0 0 0 0 1 0.5 0.5 0.5 
2 1 93.4336 96.7868 0 0 0 0 1 0.5 0.5 0.5 
3 1 93.9605 95.8801 0 0 0 0 1 0.5 0.5 0.5 
4 1 94.4979 94.9851 0 0 0 0 1 0.5 0.5 0.5 
5 1 94.994 94.0578 0 0 0 0 1 0.5 0.5 0.5 
6 1 95.4782 93.1286 0 0 0 0 1 0.5 0.5 0.5 
7 1 96.0077 92.2288 0 0 0 0 1 0.5 0.5 0.5 
8 1 96.5158 91.3121 0 0 0 0 1 0.5 0.5 0.5 
9 1 97.0215 90.4158 0 0 0 0 1 0.5 0.5 0.5 
10 1 97.5301 89.4913 0 0 0 0 1 0.5 0.5 0.5 
11 1 98.0702 88.6171 0 0 0 0 1 0.5 0.5 0.5 
12 1 98.6463 87.7367 0 0 0 0 1 0.5 0.5 0.5 
13 1 99.2074 86.8755 0 0 0 0 1 0.5 0.5 0.5 
14 1 99.7953 86.0346 0 0 0 0 1 0.5 0.5 0.5 
15 1 100.382 85.2023 0 0 0 0 1 0.5 0.5 0.5 
16 1 100.981 84.3761 0 0 0 0 1 0.5 0.5 0.5 
17 1 101.558 83.5467 0 0 0 0 1 0.5 0.5 0.5 
18 1 102.148 82.6836 0 0 0 0 1 0.5 0.5 0.5 
19 1 102.674 81.8111 0 0 0 0 1 0.5 0.5 0.5 
20 1 103.223 80.9436 0 0 0 0 1 0.5 0.5 0.5 
21 1 103.77 80.063 0 0 0 0 1 0.5 0.5 0.5 
22 1 104.335 79.1848 0 0 0 0 1 0.5 0.5 0.5 
23 1 104.904 78.2979 0 0 0 0 1 0.5 0.5 0.5 
24 1 105.466 77.4094 0 0 0 0 1 0.5 0.5 0.5 
25 1 106.035 76.5432 0 0 0 0 1 0.5 0.5 0.5 
26 1 106.625 75.6529 0 0 0 0 1 0.5 0.5 0.5 
27 1 107.208 74.8055 0 0 0 0 1 0.5 0.5 0.5 
28 1 107.76 73.9197 0 0 0 0 1 0.5 0.5 0.5 
29 1 108.358 73.0646 0 0 0 0 1 0.5 0.5 0.5 
30 2 108.961 72.1938 0 0 0 0 1 0.5 0.5 0.5 
31 3 187.709 185.2 0 0 0 0.828817 0.559519 5.55 5.55 5.55 
32 3 14.1466 4.09482 0 0 0 0.9647 -0.263351 5.55 5.55 5.55 
33 3 34.8889 181.989 0 0 0 0.911258 -0.411837 5.55 5.55 5.55 
34 3 52.303 185.497 0 0 0 0.760501 -0.649336 5.55 5.55 5.55 
35 3 74.2231 184.922 0 0 0 0.550359 -0.834928 5.55 5.55 5.55 
36 3 99.4652 2.35315 0 0 0 0.968081 0.250638 5.55 5.55 5.55 
37 3 111.288 6.6463 0 0 0 0.943124 -0.332441 5.55 5.55 5.55 
38 3 137.766 5.63671 0 0 0 0.461865 -0.88695 5.55 5.55 5.55 
39 3 151.543 4.41358 0 0 0 0.600848 -0.799364 5.55 5.55 5.55 
40 3 183.108 15.2894 0 0 0 0.897554 -0.440905 5.55 5.55 5.55 
41 3 13.6542 19.3189 0 0 0 0.771441 0.636301 5.55 5.55 5.55 
42 3 43.874 11.7157 0 0 0 0.595775 0.803152 5.55 5.55 5.55 
43 3 67.2185 17.8082 0 0 0 0.636799 -0.771029 5.55 5.55 5.55 
44 3 79.3066 26.5102 0 0 0 0.26972 0.962939 5.55 5.55 5.55 
45 3 98.8921 16.548 0 0 0 0.974611 0.223905 5.55 5.55 5.55 
46 3 121.737 18.1698 0 0 0 0.891035 0.453934 5.55 5.55 5.55 
47 3 137.171 25.264 0 0 0 0.987945 -0.154808 5.55 5.55 5.55 
48 3 151.981 18.7538 0 0 0 0.763139 -0.646234 5.55 5.55 5.55 
49 3 6.45712 41.9565 0 0 0 0.12849 0.991711 5.55 5.55 5.55 
50 3 21.1417 30.5883 0 0 0 0.977651 0.210236 5.55 5.55 5.55 
51 3 36.4798 40.5437 0 0 0 0.462746 -0.886491 5.55 5.55 5.55 
52 3 59.9988 39.2437 0 0 0 0.0498572 -0.998756 5.55 5.55 5.55 
53 3 76.8011 40.8849 0 0 0 0.925545 -0.378638 5.55 5.55 5.55 
54 3 91.846 30.8357 0 0 0 0.850507 -0.525963 5.55 5.55 5.55 
55 3 114.281 42.9039 0 0 0 0.786421 0.617691 5.55 5.55 5.55 
56 3 129.702 43.6861 0 0 0 0.6862 -0.727413 5.55 5.55 5.55 
57 3 165.571 38.2973 0 0 0 0.468458 -0.883486 5.55 5.55 5.55 
58 3 178.831 56.9912 0 0 0 0.582558 -0.812789 5.55 5.55 5.55 
59 3 19.8945 60.4991 0 0 0 0.881916 -0.471407 5.55 5.55 5.55 
60 3 35.018 52.7252 0 0 0 0.34547 -0.93843 5.55 5.55 5.55 
61 3 58.4963 63.6821 0 0 0 0.781988 0.623294 5.55 5.55 5.55 
62 3 86.5382 50.3285 0 0 0 0.578977 -0.815344 5.55 5.55 5.55 
63 3 103.631 54.4327 0 0 0 0.999999 -0.00149942 5.55 5.55 5.55 
64 3 122.872 63.5797 0 0 0 0.74994 0.661506 5.55 5.55 5.55 
65 3 141.789 51.5941 0 0 0 0.103179 0.994663 5.55 5.55 5.55 
66 3 168.338 50.6005 0 0 0 0.0531385 -0.998587 5.55 5.55 5.55 
67 3 4.77815 76.1291 0 0 0 0.74273 -0.669591 5.55 5.55 5.55 
68 3 29.5017 85.6181 0 0 0 0.398136 0.917326 5.55 5.55 5.55 
69 3 43.7715 82.733 0 0 0 0.472061 -0.881566 5.55 5.55 5.55 
70 3 62.2768 78.5818 0 0 0 0.417803 -0.908538 5.55 5.55 5.55 
71 3 73.7793 82.5625 0 0 0 0.957749 0.287604 5.55 5.55 5.55 
72 3 106.832 84.7573 0 0 0 0.945211 0.326459 5.55 5.55 5.55 
73 3 127.736 76.8736 0 0 0 0.12346 0.992349 5.55 5.55 5.55 
74 3 143.527 77.3764 0 0 0 0.337768 0.941229 5.55 5.55 5.55 
75 3 157.131 84.4527 0 0 0 0.991303 -0.1316 5.55 5.55 5.55 
76 3 6.59613 101.981 0 0 0 0.0751338 -0.997173 5.55 5.55 5.55 
77 3 19.6584 97.5277 0 0 0 0.235382 0.971903 5.55 5.55 5.55 
78 3 33.4477 107.679 0 0 0 0.845231 -0.5344 5.55 5.55 5.55 
79 3 68.3781 95.3586 0 0 0 0.412582 -0.910921 5.55 5.55 5.55 
80 3 84.673 102.403 0 0 0 0.489259 -0.872138 5.55 5.55 5.55 
81 3 92.2919 92.1998 0 0 0 0.958813 -0.284037 5.55 5.55 5.55 
82 3 125.775 97.0125 0 0 0 0.999794 -0.0203203 5.55 5.55 5.55 
83 3 140.342 103.239 0 0 0 0.336438 0.941705 5.55 5.55 5.55 
84 3 166.698 92.7549 0 0 0 0.956901 -0.290413 5.55 5.55 5.55 
85 3 183.857 115.045 0 0 0 0.301163 -0.953573 5.55 5.55 5.55 
86 3 17.9179 118.52 0 0 0 0.381047 -0.924556 5.55 5.55 5.55 
87 3 33.683 125.391 0 0 0 0.93861 -0.344981 5.55 5.55 5.55 
88 3 54.4259 124.876 0 0 0 0.986663 -0.162776 5.55 5.55 5.55 
89 3 76.7112 117.286 0 0 0 0.0264195 0.999651 5.55 5.55 5.55 
90 3 92.8334 116.967 0 0 0 0.671603 0.740911 5.55 5.55 5.55 
91 3 118.956 116.785 0 0 0 0.889514 0.456908 5.55 5.55 5.55 
92 3 141.614 117.535 0 0 0 0.826768 -0.562543 5.55 5.55 5.55 
93 3 156.674 124.87 0 0 0 0.975814 0.218602 5.55 5.55 5.55 
94 3 0.100002 134.136 0 0 0 0.714501 -0.699634 5.55 5.55 5.55 
95 3 14.1587 147.833 0 0 0 0.887312 0.46117 5.55 5.55 5.55 
96 3 46.333 135.698 0 0 0 0.665127 -0.74673 5.55 5.55 5.55 
97 3 57.679 146.845 0 0 0 0.651166 -0.758935 5.55 5.55 5.55 
98 3 85.4909 132.983 0 0 0 0.678446 -0.73465 5.55 5.55 5.55 
99 3 91.8102 145.661 0 0 0 0.961857 -0.273554 5.55 5.55 5.55 
100 3 127.2 147.638 0 0 0 0.483279 0.875466 5.55 5.55 5.55 
101 3 147.494 138.748 0 0 0 0.978221 -0.207565 5.55 5.55 5.55 
102 3 160.908 138.608 0 0 0 0.960672 0.277685 5.55 5.55 5.55 
103 3 9.33863 159.103 0 0 0 0.165046 0.986286 5.55 5.55 5.55 
104 3 21.1532 165.699 0 0 0 0.676497 0.736446 5.55 5.55 5.55 
105 3 40.9306 162.298 0 0 0 0.724258 -0.68953 5.55 5.55 5.55 
106 3 56.791 166.934 0 0 0 0.963947 0.266096 5.55 5.55 5.55 
ITEM: TIMESTEP
3000
ITEM: NUMBER OF ATOMS
106
ITEM: BOX BOUNDS pp pp pp
0.0000000000000000e+00 1.7700000000000000e+02
0.0000000000000000e+00 1.7700000000000000e+02
-5.0000000000000000e-01 5.0000000000000000e-01
ITEM: ATOMS id type x y z c_orient[1] c_orient[2] c_orient[3] c_orient[4] c_shape[1] c_shape[2] c_shape[3] 
1 1 86.9819 92.973 0 0 0 0 1 0.5 0.5 0.5 
2 1 87.4303 92.0352 0 0 0 0 1 0.5 0.5 0.5 
3 1 87.8904 91.1013 0 0 0 0 1 0.5 0.5 0.5 
4 1 88.4132 90.181 0 0 0 0 1 0.5 0.5 0.5 
5 1 88.93 89.2603 0 0 0 0 1 0.5 0.5 0.5 
6 1 89.4399 88.3505 0 0 0 0 1 0.5 0.5 0.5 
7 1 89.9488 87.4272 0 0 0 0 1 0.5 0.5 0.5 
8 1 90.4764 86.5107 0 0 0 0 1 0.5 0.5 0.5 
9 1 91.0471 85.6304 0 0 0 0 1 0.5 0.5 0.5 
10 1 91.6125 84.7305 0 0 0 0 1 0.5 0.5 0.5 
11 1 92.1683 83.8344 0 0 0 0 1 0.5 0.5 0.5 
12 1 92.7506 82.9336 0 0 0 0 1 0.5 0.5 0.5 
13 1 93.3288 82.0529 0 0 0 0 1 0.5 0.5 0.5 
14 1 93.934 81.1992 0 0 0 0 1 0.5 0.5 0.5 
15 1 94.4998 80.3317 0 0 0 0 1 0.5 0.5 0.5 
16 1 95.0546 79.4149 0 0 0 0 1 0.5 0.5 0.5 
17 1 95.6194 78.5333 0 0 0 0 1 0.5 0.5 0.5 
18 1 96.1896 77.6215 0 0 0 0 1 0.5 0.5 0.5 
19 1 96.7695 76.7458 0 0 0 0 1 0.5 0.5 0.5 
20 1 97.3433 75.8406 0 0 0 0 1 0.5 0.5 0.5 
21 1 97.9558 74.965 0 0 0 0 1 0.5 0.5 0.5 
22 1 98.5451 74.0586 0 0 0 0 1 0.5 0.5 0.5 
23 1 99.1262 73.1562 0 0 0 0 1 0.5 0.5 0.5 
24 1 99.7525 72.2762 0 0 0 0 1 0.5 0.5 0.5 
25 1 100.332 71.3798 0 0 0 0 1 0.5 0.5 0.5 
26 1 100.911 70.4944 0 0 0 0 1 0.5 0.5 0.5 
27 1 101.473 69.6019 0 0 0 0 1 0.5 0.5 0.5 
28 1 102.013 68.7024 0 0 0 0 1 0.5 0.5 0.5 
29 1 102.577 67.8004 0 0 0 0 1 0.5 0.5 0.5 
30 2 103.079 66.8734 0 0 0 0 1 0.5 0.5 0.5 
31 3 176.577 172.928 0 0 0 0.828817 0.559519 5.55 5.55 5.55 
32 3 10.8952 2.46788 0 0 0 0.9647 -0.263351 5.55 5.55 5.55 
33 3 30.6925 168.624 0 0 0 0.911258 -0.411837 5.55 5.55 5.55 
34 3 45.8754 172.052 0 0 0 0.760501 -0.649336 5.55 5.55 5.55 
35 3 67.1341 172.523 0 0 0 0.550359 -0.834928 5.55 5.55 5.55 
36 3 89.6772 175.186 0 0 0 0.968081 0.250638 5.55 5.55 5.55 
37 3 101.551 5.7268 0 0 0 0.943124 -0.332441 5.55 5.55 5.55 
38 3 123.746 7.93384 0 0 0 0.461865 -0.88695 5.55 5.55 5.55 
39 3 143.207 0.69619 0 0 0 0.600848 -0.799364 5.55 5.55 5.55 
40 3 169.884 12.0329 0 0 0 0.897554 -0.440905 5.55 5.55 5.55 
41 3 6.36291 17.808 0 0 0 0.771441 0.636301 5.55 5.55 5.55 
42 3 42.9847 8.14253 0 0 0 0.595775 0.803152 5.55 5.55 5.55 
43 3 67.5159 10.5498 0 0 0 0.636799 -0.771029 5.55 5.55 5.55 
44 3 69.4855 26.0641 0 0 0 0.26972 0.962939 5.55 5.55 5.55 
45 3 93.7446 15.3342 0 0 0 0.974611 0.223905 5.55 5.55 5.55 
46 3 117.687 20.2938 0 0 0 0.891035 0.453934 5.55 5.55 5.55 
47 3 129.177 27.8396 0 0 0 0.987945 -0.154808 5.55 5.55 5.55 
48 3 140.898 22.767 0 0 0 0.763139 -0.646234 5.55 5.55 5.55 
49 3 9.3914 40.6138 0 0 0 0.12849 0.991711 5.55 5.55 5.55 
50 3 19.3514 26.278 0 0 0 0.977651 0.210236 5.55 5.55 5.55 
51 3 37.2133 33.9426 0 0 0 0.462746 -0.886491 5.55 5.55 5.55 
52 3 50.6092 40.5229 0 0 0 0.0498572 -0.998756 5.55 5.55 5.55 
53 3 73.1648 38.687 0 0 0 0.925545 -0.378638 5.55 5.55 5.55 
54 3 85.875 28.2079 0 0 0 0.850507 -0.525963 5.55 5.55 5.55 
55 3 103.711 39.213 0 0 0 0.786421 0.617691 5.55 5.55 5.55 
56 3 119.173 41.2372 0 0 0 0.6862 -0.727413 5.55 5.55 5.55 
57 3 157.182 26.3 0 0 0 0.468458 -0.883486 5.55 5.55 5.55 
58 3 169.414 56.0139 0 0 0 0.582558 -0.812789 5.55 5.55 5.55 
59 3 18.7306 57.3781 0 0 0 0.881916 -0.471407 5.55 5.55 5.55 
60 3 29.9176 52.0625 0 0 0 0.34547 -0.93843 5.55 5.55 5.55 
61 3 53.7515 57.74 0 0 0 0.781988 0.623294 5.55 5.55 5.55 
62 3 87.2113 44.7133 0 0 0 0.578977 -0.815344 5.55 5.55 5.55 
63 3 98.7259 51.9113 0 0 0 0.999999 -0.00149942 5.55 5.55 5.55 
64 3 117.272 61.5403 0 0 0 0.74994 0.661506 5.55 5.55 5.55 
65 3 136.458 46.4201 0 0 0 0.103179 0.994663 5.55 5.55 5.55 
66 3 159.442 48.2351 0 0 0 0.0531385 -0.998587 5.55 5.55 5.55 
67 3 6.94947 69.9063 0 0 0 0.74273 -0.669591 5.55 5.55 5.55 
68 3 28.2039 80.9991 0 0 0 0.398136 0.917326 5.55 5.55 5.55 
69 3 44.0225 79.6832 0 0 0 0.472061 -0.881566 5.55 5.55 5.55 
70 3 60.8008 73.9857 0 0 0 0.417803 -0.908538 5.55 5.55 5.55 
71 3 75.5439 73.8088 0 0 0 0.957749 0.287604 5.55 5.55 5.55 
72 3 104.19 82.3247 0 0 0 0.945211 0.326459 5.55 5.55 5.55 
73 3 124.766 71.3074 0 0 0 0.12346 0.992349 5.55 5.55 5.55 
74 3 137.089 71.4941 0 0 0 0.337768 0.941229 5.55 5.55 5.55 
75 3 145.576 80.5155 0 0 0 0.991303 -0.1316 5.55 5.55 5.55 
76 3 4.27262 95.6944 0 0 0 0.0751338 -0.997173 5.55 5.55 5.55 
77 3 23.2786 92.9345 0 0 0 0.235382 0.971903 5.55 5.55 5.55 
78 3 28.2383 105.589 0 0 0 0.845231 -0.5344 5.55 5.55 5.55 
79 3 63.9836 95.1193 0 0 0 0.412582 -0.910921 5.55 5.55 5.55 
80 3 77.0045 92.6268 0 0 0 0.489259 -0.872138 5.55 5.55 5.55 
81 3 86.8058 78.9178 0 0 0 0.958813 -0.284037 5.55 5.55 5.55 
82 3 121.703 90.0752 0 0 0 0.999794 -0.0203203 5.55 5.55 5.55 
83 3 132.686 99.1309 0 0 0 0.336438 0.941705 5.55 5.55 5.55 
84 3 162.365 85.6061 0 0 0 0.956901 -0.290413 5.55 5.55 5.55 
85 3 169.289 109.78 0 0 0 0.301163 -0.953573 5.55 5.55 5.55 
86 3 15.8558 111.152 0 0 0 0.381047 -0.924556 5.55 5.55 5.55 
87 3 28.5805 121.145 0 0 0 0.93861 -0.344981 5.55 5.55 5.55 
88 3 52.5998 115.268 0 0 0 0.986663 -0.162776 5.55 5.55 5.55 
89 3 69.0273 112.631 0 0 0 0.0264195 0.999651 5.55 5.55 5.55 
90 3 91.1926 112.145 0 0 0 0.671603 0.740911 5.55 5.55 5.55 
91 3 107.053 108.551 0 0 0 0.889514 0.456908 5.55 5.55 5.55 
92 3 139.269 109.796 0 0 0 0.826768 -0.562543 5.55 5.55 5.55 
93 3 146.371 120.16 0 0 0 0.975814 0.218602 5.55 5.55 5.55 
94 3 0.145445 123.659 0 0 0 0.714501 -0.699634 5.55 5.55 5.55 
95 3 13.6097 136.367 0 0 0 0.887312 0.46117 5.55 5.55 5.55 
96 3 39.7129 129.28 0 0 0 0.665127 -0.74673 5.55 5.55 5.55 
97 3 56.4878 143.924 0 0 0 0.651166 -0.758935 5.55 5.55 5.55 
98 3 79.9132 123.681 0 0 0 0.678446 -0.73465 5.55 5.55 5.55 
99 3 83.9034 141.755 0 0 0 0.961857 -0.273554 5.55 5.55 5.55 
100 3 123.776 143.298 0 0 0 0.483279 0.875466 5.55 5.55 5.55 
101 3 140.071 130.634 0 0 0 0.978221 -0.207565 5.55 5.55 5.55 
102 3 155.274 130.125 0 0 0 0.960672 0.277685 5.55 5.55 5.55 
103 3 8.60437 156.248 0 0 0 0.165046 0.986286 5.55 5.55 5.55 
104 3 21.9596 159.728 0 0 0 0.676497 0.736446 5.55 5.55 5.55 
105 3 39.1216 154.414 0 0 0 0.724258 -0.68953 5.55 5.55 5.55 
106 3 51.9849 161.157 0 0 0 0.963947 0.266096 5.55 5.55 5.55 
ITEM: TIMESTEP
4000
ITEM: NUMBER OF ATOMS
106
ITEM: BOX BOUNDS pp pp pp
0.0000000000000000e+00 1.6600000000000000e+02
0.0000000000000000e+00 1.6600000000000000e+02
-5.0000000000000000e-01 5.0000000000000000e-01
ITEM: ATOMS id type x y z c_orient[1] c_orient[2] c_orient[3] c_orient[4] c_shape[1] c_shape[2] c_shape[3] 
1 1 80.8708 87.7456 0 0 0 0 1 0.5 0.5 0.5 
2 1 81.4401 86.8701 0 0 0 0 1 0.5 0.5 0.5 
3 1 82.0213 86.0231 0 0 0 0 1 0.5 0.5 0.5 
4 1 82.6066 85.1551 0 0 0 0 1 0.5 0.5 0.5 
5 1 83.1842 84.2859 0 0 0 0 1 0.5 0.5 0.5 
6 1 83.7247 83.3818 0 0 0 0 1 0.5 0.5 0.5 
7 1 84.2753 82.4933 0 0 0 0 1 0.5 0.5 0.5 
8 1 84.8179 81.6018 0 0 0 0 1 0.5 0.5 0.5 
9 1 85.3395 80.6822 0 0 0 0 1 0.5 0.5 0.5 
10 1 85.8872 79.7808 0 0 0 0 1 0.5 0.5 0.5 
11 1 86.386 78.8528 0 0 0 0 1 0.5 0.5 0.5 
12 1 86.8799 77.9177 0 0 0 0 1 0.5 0.5 0.5 
13 1 87.3977 77.0032 0 0 0 0 1 0.5 0.5 0.5 
14 1 87.9601 76.1142 0 0 0 0 1 0.5 0.5 0.5 
15 1 88.5488 75.2772 0 0 0 0 1 0.5 0.5 0.5 
16 1 89.1225 74.4019 0 0 0 0 1 0.5 0.5 0.5 
17 1 89.7044 73.5204 0 0 0 0 1 0.5 0.5 0.5 
18 1 90.331 72.6628 0 0 0 0 1 0.5 0.5 0.5 
19 1 90.9314 71.8112 0 0 0 0 1 0.5 0.5 0.5 
20 1 91.5135 70.9388 0 0 0 0 1 0.5 0.5 0.5 
21 1 92.0736 70.0582 0 0 0 0 1 0.5 0.5 0.5 
22 1 92.6201 69.1493 0 0 0 0 1 0.5 0.5 0.5 
23 1 93.1788 68.2637 0 0 0 0 1 0.5 0.5 0.5 
24 1 93.7384 67.3758 0 0 0 0 1 0.5 0.5 0.5 
25 1 94.2829 66.4808 0 0 0 0 1 0.5 0.5 0.5 
26 1 94.8416 65.5984 0 0 0 0 1 0.5 0.5 0.5 
27 1 95.3827 64.711 0 0 0 0 1 0.5 0.5 0.5 
28 1 95.9783 63.8677 0 0 0 0 1 0.5 0.5 0.5 
29 1 96.5512 62.9735 0 0 0 0 1 0.5 0.5 0.5 
30 2 97.1576 62.1129 0 0 0 0 1 0.5 0.5 0.5 
31 3 161.595 160.162 0 0 0 0.828817 0.559519 5.55 5.55 5.55 
32 3 11.4425 163.86 0 0 0 0.9647 -0.263351 5.55 5.55 5.55 
33 3 24.2415 161.43 0 0 0 0.911258 -0.411837 5.55 5.55 5.55 
34 3 46.4847 163.419 0 0 0 0.760501 -0.649336 5.55 5.55 5.55 
35 3 60.1817 160.168 0 0 0 0.550359 -0.834928 5.55 5.55 5.55 
36 3 80.1437 160.276 0 0 0 0.968081 0.250638 5.55 5.55 5.55 
37 3 96.1995 165.563 0 0 0 0.943124 -0.332441 5.55 5.55 5.55 
38 3 110.815 8.08155 0 0 0 0.461865 -0.88695 5.55 5.55 5.55 
39 3 134.838 163.201 0 0 0 0.600848 -0.799364 5.55 5.55 5.55 
40 3 158.679 7.47141 0 0 0 0.897554 -0.440905 5.55 5.55 5.55 
41 3 163.799 19.5555 0 0 0 0.771441 0.636301 5.55 5.55 5.55 
42 3 40.5634 9.23771 0 0 0 0.595775 0.803152 5.55 5.55 5.55 
43 3 67.5816 3.74744 0 0 0 0.636799 -0.771029 5.55 5.55 5.55 
44 3 58.5862 23.0057 0 0 0 0.26972 0.962939 5.55 5.55 5.55 
45 3 86.4936 15.8922 0 0 0 0.974611 0.223905 5.55 5.55 5.55 
46 3 108.329 21.7755 0 0 0 0.891035 0.453934 5.55 5.55 5.55 
47 3 122.886 30.3356 0 0 0 0.987945 -0.154808 5.55 5.55 5.55 
48 3 136.784 23.7239 0 0 0 0.763139 -0.646234 5.55 5.55 5.55 
49 3 12.1134 39.1997 0 0 0 0.12849 0.991711 5.55 5.55 5.55 
50 3 18.6036 23.4296 0 0 0 0.977651 0.210236 5.55 5.55 5.55 
51 3 37.7629 27.6125 0 0 0 0.462746 -0.886491 5.55 5.55 5.55 
52 3 41.5965 41.5729 0 0 0 0.0498572 -0.998756 5.55 5.55 5.55 
53 3 68.4815 37.7371 0 0 0 0.925545 -0.378638 5.55 5.55 5.55 
54 3 78.1909 25.5865 0 0 0 0.850507 -0.525963 5.55 5.55 5.55 
55 3 91.4536 32.1373 0 0 0 0.786421 0.617691 5.55 5.55 5.55 
56 3 110.126 43.9004 0 0 0 0.6862 -0.727413 5.55 5.55 5.55 
57 3 146.653 15.4799 0 0 0 0.468458 -0.883486 5.55 5.55 5.55 
58 3 160.189 55.0545 0 0 0 0.582558 -0.812789 5.55 5.55 5.55 
59 3 15.4088 53.4285 0 0 0 0.881916 -0.471407 5.55 5.55 5.55 
60 3 29.3439 49.2069 0 0 0 0.34547 -0.93843 5.55 5.55 5.55 
61 3 49.0915 51.94 0 0 0 0.781988 0.623294 5.55 5.55 5.55 
62 3 81.6504 41.4666 0 0 0 0.578977 -0.815344 5.55 5.55 5.55 
63 3 97.6883 55.2355 0 0 0 0.999999 -0.00149942 5.55 5.55 5.55 
64 3 110.081 56.7523 0 0 0 0.74994 0.661506 5.55 5.55 5.55 
65 3 130.937 41.3843 0 0 0 0.103179 0.994663 5.55 5.55 5.55 
66 3 150.425 46.5671 0 0 0 0.0531385 -0.998587 5.55 5.55 5.55 
67 3 6.79047 66.6362 0 0 0 0.74273 -0.669591 5.55 5.55 5.55 
68 3 27.3193 71.9699 0 0 0 0.398136 0.917326 5.55 5.55 5.55 
69 3 39.5454 78.6658 0 0 0 0.472061 -0.881566 5.55 5.55 5.55 
70 3 57.7493 68.7811 0 0 0 0.417803 -0.908538 5.55 5.55 5.55 
71 3 76.4408 60.5275 0 0 0 0.957749 0.287604 5.55 5.55 5.55 
72 3 101.318 79.7302 0 0 0 0.945211 0.326459 5.55 5.55 5.55 
73 3 117.585 68.5307 0 0 0 0.12346 0.992349 5.55 5.55 5.55 
74 3 134.185 63.4857 0 0 0 0.337768 0.941229 5.55 5.55 5.55 
75 3 136.401 78.7196 0 0 0 0.991303 -0.1316 5.55 5.55 5.55 
76 3 0.338142 89.9423 0 0 0 0.0751338 -0.997173 5.55 5.55 5.55 
77 3 26.1914 90.3654 0 0 0 0.235382 0.971903 5.55 5.55 5.55 
78 3 26.1764 103.633 0 0 0 0.845231 -0.5344 5.55 5.55 5.55 
79 3 55.8739 94.0618 0 0 0 0.412582 -0.910921 5.55 5.55 5.55 
80 3 73.1867 83.4926 0 0 0 0.489259 -0.872138 5.55 5.55 5.55 
81 3 89.7407 69.2363 0 0 0 0.958813 -0.284037 5.55 5.55 5.55 
82 3 117.421 83.2188 0 0 0 0.999794 -0.0203203 5.55 5.55 5.55 
83 3 123.868 93.6678 0 0 0 0.336438 0.941705 5.55 5.55 5.55 
84 3 157.685 78.5676 0 0 0 0.956901 -0.290413 5.55 5.55 5.55 