LAMMPS (12 Dec 2018)
#!/bin/sh

# Setup
echo		screen
  orthogonal box = (0 0 -0.5) to (200 200 0.5)
  1 by 1 by 1 MPI processor grid
  reading atoms ...
  30 atoms
  scanning bonds ...
  2 = max bonds/atom
  scanning angles ...
  3 = max angles/atom
  reading bonds ...
  29 bonds
  reading angles ...
  28 angles
  2 = max # of 1-2 neighbors
  2 = max # of 1-3 neighbors
  4 = max # of 1-4 neighbors
  6 = max # of special neighbors
  orthogonal box = (0 0 -0.5) to (200 200 0.5)
  1 by 1 by 1 MPI processor grid
  reading atoms ...
  318 atoms
  318 ellipsoids
  2 = max # of 1-2 neighbors
  2 = max # of 1-3 neighbors
  4 = max # of 1-4 neighbors
  6 = max # of special neighbors
30 atoms in group chain
318 atoms in group obs
  30 settings made for mass
  318 settings made for mass
  30 settings made for shape
  318 settings made for shape
  318 settings made for quat/random
WARNING: Using 'neigh_modify every 1 delay 0 check yes' setting during minimization (../min.cpp:168)
Neighbor list info ...
  update every 1 steps, delay 0 steps, check yes
  max neighbors/atom: 2000, page size: 100000
  master list distance cutoff = 4.78984
  ghost atom cutoff = 4.78984
  binsize = 2.39492, bins = 84 84 1
  3 neighbor lists, perpetual/occasional/extra = 3 0 0
  (1) pair lj/cut, perpetual, skip from (3)
      attributes: half, newton off
      pair build: skip
      stencil: none
      bin: none
  (2) pair gayberne, perpetual, skip from (3)
      attributes: half, newton off
      pair build: skip
      stencil: none
      bin: none
  (3) neighbor class addition, perpetual
      attributes: half, newton off
      pair build: half/bin/newtoff
      stencil: half/bin/2d/newtoff
      bin: standard
Per MPI rank memory allocation (min/avg/max) = 9.911 | 9.911 | 9.911 Mbytes
Step Temp E_pair E_mol TotEng Press 
       0    2.2259366     11817418     1.946181     11817422    616892.79 
      53    2.2259366 -0.016615357  0.074693789    2.2776187  0.019952234 
Loop time of 0.002481 on 1 procs for 53 steps with 348 atoms

91.4% CPU use with 1 MPI tasks x no OpenMP threads

Minimization stats:
  Stopping criterion = energy tolerance
  Energy initial, next-to-last, final = 
         11817420.0145    0.0580799795659    0.0580784316883
  Force two-norm initial, final = 7.49364e+10 34.4865
  Force max component initial, final = 5.502e+10 13.4801
  Final line search alpha, max atom move = 4.52478e-07 6.09946e-06
  Iterations, force evaluations = 53 170

MPI task timing breakdown:
Section |  min time  |  avg time  |  max time  |%varavg| %total
---------------------------------------------------------------
Pair    | 0.000198   | 0.000198   | 0.000198   |   0.0 |  7.98
Bond    | 0.000474   | 0.000474   | 0.000474   |   0.0 | 19.11
Neigh   | 0.000486   | 0.000486   | 0.000486   |   0.0 | 19.59
Comm    | 0.000216   | 0.000216   | 0.000216   |   0.0 |  8.71
Output  | 0          | 0          | 0          |   0.0 |  0.00
Modify  | 0          | 0          | 0          |   0.0 |  0.00
Other   |            | 0.001107   |            |       | 44.62

Nlocal:    348 ave 348 max 348 min
Histogram: 1 0 0 0 0 0 0 0 0 0
Nghost:    37 ave 37 max 37 min
Histogram: 1 0 0 0 0 0 0 0 0 0
Neighs:    0 ave 0 max 0 min
Histogram: 1 0 0 0 0 0 0 0 0 0

Total # of neighbors = 0
Ave neighs/atom = 0
Ave special neighs/atom = 0.482759
Neighbor list builds = 20
Dangerous builds = 0
WARNING: One or more atoms are time integrated more than once (../modify.cpp:283)
Neighbor list info ...
  update every 1 steps, delay 0 steps, check yes
  max neighbors/atom: 2000, page size: 100000
  master list distance cutoff = 5.28984
  ghost atom cutoff = 5.28984
  binsize = 2.64492, bins = 76 76 1
  3 neighbor lists, perpetual/occasional/extra = 3 0 0
  (1) pair lj/cut, perpetual, skip from (3)
      attributes: half, newton off
      pair build: skip
      stencil: none
      bin: none
  (2) pair gayberne, perpetual, skip from (3)
      attributes: half, newton off
      pair build: skip
      stencil: none
      bin: none
  (3) neighbor class addition, perpetual
      attributes: half, newton off
      pair build: half/bin/newtoff
      stencil: half/bin/2d/newtoff
      bin: standard
Per MPI rank memory allocation (min/avg/max) = 12.29 | 12.29 | 12.29 Mbytes
Step Temp E_pair E_mol TotEng Press Volume 
       0    2.2259366            0  0.074693789     2.294234  0.019798285        40000 
    1000    2.3009219   -8.6029424  0.063436797   -6.2451955  0.030632793        36100 
    2000    2.4706734   -5.7440914  0.065091765   -3.2154259  0.044495465        32400 
    3000    2.6689915   -11.471116  0.045945255   -8.7638484  0.055598804        28900 
    4000    2.9315582   -11.446123  0.052511415   -8.4704772  0.091479726        25600 
    5000    3.4026782   -25.807883  0.020036731   -22.394946   0.16823617        22500 
    6000    3.9408502    -14.34013  0.038836267   -10.371768   0.14248477        19600 
    7000    4.9592896   -25.831446  0.020085398   -20.866322   0.17495868        16900 
    8000    6.6862538   -34.371263  0.040003992   -27.664219   0.44550504        14400 
    9000    10.799415   -74.343748  0.017092081   -63.558274    1.1219505        12100 
   10000    24.857211   -124.75119  0.028144174    -99.93726    3.8607396        10000 
Loop time of 0.706106 on 1 procs for 10000 steps with 348 atoms

Performance: 1223612.319 tau/day, 14162.180 timesteps/s
96.5% CPU use with 1 MPI tasks x no OpenMP threads

MPI task timing breakdown:
Section |  min time  |  avg time  |  max time  |%varavg| %total
---------------------------------------------------------------
Pair    | 0.030331   | 0.030331   | 0.030331   |   0.0 |  4.30
Bond    | 0.027752   | 0.027752   | 0.027752   |   0.0 |  3.93
Neigh   | 0.04799    | 0.04799    | 0.04799    |   0.0 |  6.80
Comm    | 0.020742   | 0.020742   | 0.020742   |   0.0 |  2.94
Output  | 0.01783    | 0.01783    | 0.01783    |   0.0 |  2.53
Modify  | 0.53798    | 0.53798    | 0.53798    |   0.0 | 76.19
Other   |            | 0.02348    |            |       |  3.33

Nlocal:    348 ave 348 max 348 min
Histogram: 1 0 0 0 0 0 0 0 0 0
Nghost:    74 ave 74 max 74 min
Histogram: 1 0 0 0 0 0 0 0 0 0
Neighs:    0 ave 0 max 0 min
Histogram: 1 0 0 0 0 0 0 0 0 0

Total # of neighbors = 0
Ave neighs/atom = 0
Ave special neighs/atom = 0.482759
Neighbor list builds = 714
Dangerous builds = 0
WARNING: One or more atoms are time integrated more than once (../modify.cpp:283)
Neighbor list info ...
  update every 1 steps, delay 0 steps, check yes
  max neighbors/atom: 2000, page size: 100000
  master list distance cutoff = 5.28984
  ghost atom cutoff = 5.28984
  binsize = 2.64492, bins = 38 38 1
  3 neighbor lists, perpetual/occasional/extra = 3 0 0
  (1) pair lj/cut, perpetual, skip from (3)
      attributes: half, newton off
      pair build: skip
      stencil: none
      bin: none
  (2) pair gayberne, perpetual, skip from (3)
      attributes: half, newton off
      pair build: skip
      stencil: none
      bin: none
  (3) neighbor class addition, perpetual
      attributes: half, newton off
      pair build: half/bin/newtoff
      stencil: half/bin/2d/newtoff
      bin: standard

Please see the log.cite file for references relevant to this simulation

Total wall time: 0:00:00
