LAMMPS (12 Dec 2018)
#!/bin/sh

# Setup
echo		screen
  orthogonal box = (0 0 -0.5) to (200 200 0.5)
  1 by 1 by 1 MPI processor grid
  reading atoms ...
  30 atoms
  scanning bonds ...
  2 = max bonds/atom
  scanning angles ...
  3 = max angles/atom
  reading bonds ...
  29 bonds
  reading angles ...
  28 angles
  2 = max # of 1-2 neighbors
  2 = max # of 1-3 neighbors
  4 = max # of 1-4 neighbors
  6 = max # of special neighbors
  orthogonal box = (0 0 -0.5) to (200 200 0.5)
  1 by 1 by 1 MPI processor grid
  reading atoms ...
  318 atoms
  318 ellipsoids
  2 = max # of 1-2 neighbors
  2 = max # of 1-3 neighbors
  4 = max # of 1-4 neighbors
  6 = max # of special neighbors
30 atoms in group chain
318 atoms in group obs
  30 settings made for mass
  318 settings made for mass
  30 settings made for shape
  318 settings made for shape
  318 settings made for quat/random
WARNING: Using 'neigh_modify every 1 delay 0 check yes' setting during minimization (../min.cpp:168)
Neighbor list info ...
  update every 1 steps, delay 0 steps, check yes
  max neighbors/atom: 2000, page size: 100000
  master list distance cutoff = 4.78984
  ghost atom cutoff = 4.78984
  binsize = 2.39492, bins = 84 84 1
  3 neighbor lists, perpetual/occasional/extra = 3 0 0
  (1) pair lj/cut, perpetual, skip from (3)
      attributes: half, newton off
      pair build: skip
      stencil: none
      bin: none
  (2) pair gayberne, perpetual, skip from (3)
      attributes: half, newton off
      pair build: skip
      stencil: none
      bin: none
  (3) neighbor class addition, perpetual
      attributes: half, newton off
      pair build: half/bin/newtoff
      stencil: half/bin/2d/newtoff
      bin: standard
Per MPI rank memory allocation (min/avg/max) = 9.911 | 9.911 | 9.911 Mbytes
Step Temp E_pair E_mol TotEng Press 
       0    2.2259366    1.8971281    2.2762649    6.3929332   0.15660038 
      66    2.2259366 -0.0086206897 0.0029034207     2.213823  0.019644845 
Loop time of 0.002935 on 1 procs for 66 steps with 348 atoms

85.2% CPU use with 1 MPI tasks x no OpenMP threads

Minimization stats:
  Stopping criterion = energy tolerance
  Energy initial, next-to-last, final = 
         4.17339295048  -0.00571723151882  -0.00571726895153
  Force two-norm initial, final = 6619.07 3.01503
  Force max component initial, final = 3552.84 1.06518
  Final line search alpha, max atom move = 1.43049e-06 1.52373e-06
  Iterations, force evaluations = 66 215

MPI task timing breakdown:
Section |  min time  |  avg time  |  max time  |%varavg| %total
---------------------------------------------------------------
Pair    | 0.000254   | 0.000254   | 0.000254   |   0.0 |  8.65
Bond    | 0.000621   | 0.000621   | 0.000621   |   0.0 | 21.16
Neigh   | 0.000378   | 0.000378   | 0.000378   |   0.0 | 12.88
Comm    | 0.000224   | 0.000224   | 0.000224   |   0.0 |  7.63
Output  | 0          | 0          | 0          |   0.0 |  0.00
Modify  | 0          | 0          | 0          |   0.0 |  0.00
Other   |            | 0.001458   |            |       | 49.68

Nlocal:    348 ave 348 max 348 min
Histogram: 1 0 0 0 0 0 0 0 0 0
Nghost:    37 ave 37 max 37 min
Histogram: 1 0 0 0 0 0 0 0 0 0
Neighs:    0 ave 0 max 0 min
Histogram: 1 0 0 0 0 0 0 0 0 0

Total # of neighbors = 0
Ave neighs/atom = 0
Ave special neighs/atom = 0.482759
Neighbor list builds = 15
Dangerous builds = 0
WARNING: One or more atoms are time integrated more than once (../modify.cpp:283)
Neighbor list info ...
  update every 1 steps, delay 0 steps, check yes
  max neighbors/atom: 2000, page size: 100000
  master list distance cutoff = 5.28984
  ghost atom cutoff = 5.28984
  binsize = 2.64492, bins = 76 76 1
  3 neighbor lists, perpetual/occasional/extra = 3 0 0
  (1) pair lj/cut, perpetual, skip from (3)
      attributes: half, newton off
      pair build: skip
      stencil: none
      bin: none
  (2) pair gayberne, perpetual, skip from (3)
      attributes: half, newton off
      pair build: skip
      stencil: none
      bin: none
  (3) neighbor class addition, perpetual
      attributes: half, newton off
      pair build: half/bin/newtoff
      stencil: half/bin/2d/newtoff
      bin: standard
Per MPI rank memory allocation (min/avg/max) = 12.29 | 12.29 | 12.29 Mbytes
Step Temp E_pair E_mol TotEng Press Volume 
       0    2.2259366            0 0.0029034207    2.2224437   0.01964484        40000 
    1000    2.2687626   -8.6029424  0.028945164    -6.311754  0.037114674        36100 
    2000     2.466157   -5.7440914  0.020530957   -3.2644902  0.040002338        32400 
    3000    2.6306259   -11.471116   0.01286944   -8.8351796  0.058279647        28900 
    4000    2.9056582   -11.446123   0.02204337   -8.5267707  0.083386572        25600 
    5000    3.3762162   -14.345782  0.019357165    -10.95991   0.11214122        22500 
    6000     3.887595    -20.04215  0.011903778   -16.153823   0.18706849        19600 
    7000    4.8848965   -25.822179  0.017173808   -20.934146   0.18889455        16900 
    8000    6.4392383   -37.142099  0.019586541   -30.701778   0.56893232        14400 
    9000    10.061592   -53.860431  0.011366286   -43.816385    1.2652524        12100 
   10000    23.806929    -104.9597 0.0097131213   -81.211471    2.9596808        10000 
Loop time of 0.634075 on 1 procs for 10000 steps with 348 atoms

Performance: 1362614.833 tau/day, 15771.005 timesteps/s
97.2% CPU use with 1 MPI tasks x no OpenMP threads

MPI task timing breakdown:
Section |  min time  |  avg time  |  max time  |%varavg| %total
---------------------------------------------------------------
Pair    | 0.025684   | 0.025684   | 0.025684   |   0.0 |  4.05
Bond    | 0.024633   | 0.024633   | 0.024633   |   0.0 |  3.88
Neigh   | 0.040557   | 0.040557   | 0.040557   |   0.0 |  6.40
Comm    | 0.016811   | 0.016811   | 0.016811   |   0.0 |  2.65
Output  | 0.017694   | 0.017694   | 0.017694   |   0.0 |  2.79
Modify  | 0.48907    | 0.48907    | 0.48907    |   0.0 | 77.13
Other   |            | 0.01963    |            |       |  3.10

Nlocal:    348 ave 348 max 348 min
Histogram: 1 0 0 0 0 0 0 0 0 0
Nghost:    70 ave 70 max 70 min
Histogram: 1 0 0 0 0 0 0 0 0 0
Neighs:    0 ave 0 max 0 min
Histogram: 1 0 0 0 0 0 0 0 0 0

Total # of neighbors = 0
Ave neighs/atom = 0
Ave special neighs/atom = 0.482759
Neighbor list builds = 717
Dangerous builds = 0
WARNING: One or more atoms are time integrated more than once (../modify.cpp:283)
Neighbor list info ...
  update every 1 steps, delay 0 steps, check yes
  max neighbors/atom: 2000, page size: 100000
  master list distance cutoff = 5.28984
  ghost atom cutoff = 5.28984
  binsize = 2.64492, bins = 38 38 1
  3 neighbor lists, perpetual/occasional/extra = 3 0 0
  (1) pair lj/cut, perpetual, skip from (3)
      attributes: half, newton off
      pair build: skip
      stencil: none
      bin: none
  (2) pair gayberne, perpetual, skip from (3)
      attributes: half, newton off
      pair build: skip
      stencil: none
      bin: none
  (3) neighbor class addition, perpetual
      attributes: half, newton off
      pair build: half/bin/newtoff
      stencil: half/bin/2d/newtoff
      bin: standard

Please see the log.cite file for references relevant to this simulation

Total wall time: 0:00:00
