LAMMPS (12 Dec 2018)
#!/bin/sh

# Setup
echo		screen
  orthogonal box = (0 0 -0.5) to (200 200 0.5)
  1 by 1 by 1 MPI processor grid
  reading atoms ...
  30 atoms
  scanning bonds ...
  2 = max bonds/atom
  scanning angles ...
  3 = max angles/atom
  reading bonds ...
  29 bonds
  reading angles ...
  28 angles
  2 = max # of 1-2 neighbors
  2 = max # of 1-3 neighbors
  4 = max # of 1-4 neighbors
  6 = max # of special neighbors
  orthogonal box = (0 0 -0.5) to (200 200 0.5)
  1 by 1 by 1 MPI processor grid
  reading atoms ...
  80 atoms
  80 ellipsoids
  2 = max # of 1-2 neighbors
  2 = max # of 1-3 neighbors
  4 = max # of 1-4 neighbors
  6 = max # of special neighbors
30 atoms in group chain
80 atoms in group obs
  30 settings made for mass
  80 settings made for mass
  30 settings made for shape
  80 settings made for shape
  80 settings made for quat/random
WARNING: Using 'neigh_modify every 1 delay 0 check yes' setting during minimization (../min.cpp:168)
Neighbor list info ...
  update every 1 steps, delay 0 steps, check yes
  max neighbors/atom: 2000, page size: 100000
  master list distance cutoff = 18.2594
  ghost atom cutoff = 18.2594
  binsize = 9.12968, bins = 22 22 1
  3 neighbor lists, perpetual/occasional/extra = 3 0 0
  (1) pair lj/cut, perpetual, skip from (3)
      attributes: half, newton off
      pair build: skip
      stencil: none
      bin: none
  (2) pair gayberne, perpetual, skip from (3)
      attributes: half, newton off
      pair build: skip
      stencil: none
      bin: none
  (3) neighbor class addition, perpetual
      attributes: half, newton off
      pair build: half/bin/newtoff
      stencil: half/bin/2d/newtoff
      bin: standard
Per MPI rank memory allocation (min/avg/max) = 9.88 | 9.88 | 9.88 Mbytes
Step Temp E_pair E_mol TotEng Press 
       0    1.8458716 -0.00052115145    4.4320395    6.2606093  0.030392703 
     221    1.8458716 -0.00052297033 0.00061145318    1.8291794 0.0050297334 
Loop time of 0.011861 on 1 procs for 221 steps with 110 atoms

96.2% CPU use with 1 MPI tasks x no OpenMP threads

Minimization stats:
  Stopping criterion = energy tolerance
  Energy initial, next-to-last, final = 
         4.43151834625  8.84890362694e-05  8.84828558162e-05
  Force two-norm initial, final = 1064.66 0.737314
  Force max component initial, final = 374.091 0.278197
  Final line search alpha, max atom move = 0.0418815 0.0116513
  Iterations, force evaluations = 221 598

MPI task timing breakdown:
Section |  min time  |  avg time  |  max time  |%varavg| %total
---------------------------------------------------------------
Pair    | 0.00759    | 0.00759    | 0.00759    |   0.0 | 63.99
Bond    | 0.002105   | 0.002105   | 0.002105   |   0.0 | 17.75
Neigh   | 0.000307   | 0.000307   | 0.000307   |   0.0 |  2.59
Comm    | 0.000473   | 0.000473   | 0.000473   |   0.0 |  3.99
Output  | 0          | 0          | 0          |   0.0 |  0.00
Modify  | 0          | 0          | 0          |   0.0 |  0.00
Other   |            | 0.001386   |            |       | 11.69

Nlocal:    110 ave 110 max 110 min
Histogram: 1 0 0 0 0 0 0 0 0 0
Nghost:    19 ave 19 max 19 min
Histogram: 1 0 0 0 0 0 0 0 0 0
Neighs:    0 ave 0 max 0 min
Histogram: 1 0 0 0 0 0 0 0 0 0

Total # of neighbors = 0
Ave neighs/atom = 0
Ave special neighs/atom = 1.52727
Neighbor list builds = 14
Dangerous builds = 0
WARNING: One or more atoms are time integrated more than once (../modify.cpp:283)
Neighbor list info ...
  update every 1 steps, delay 0 steps, check yes
  max neighbors/atom: 2000, page size: 100000
  master list distance cutoff = 18.7594
  ghost atom cutoff = 18.7594
  binsize = 9.37968, bins = 22 22 1
  3 neighbor lists, perpetual/occasional/extra = 3 0 0
  (1) pair lj/cut, perpetual, skip from (3)
      attributes: half, newton off
      pair build: skip
      stencil: none
      bin: none
  (2) pair gayberne, perpetual, skip from (3)
      attributes: half, newton off
      pair build: skip
      stencil: none
      bin: none
  (3) neighbor class addition, perpetual
      attributes: half, newton off
      pair build: half/bin/newtoff
      stencil: half/bin/2d/newtoff
      bin: standard
Per MPI rank memory allocation (min/avg/max) = 12.17 | 12.17 | 12.17 Mbytes
Step Temp E_pair E_mol TotEng Press Volume 
       0    1.8458716            0 0.00061145318    1.8297024 0.0050351192        40000 
    1000    2.6375656   -1.1178182  0.042466976    1.5382365 -0.0051844808        36100 
    2000    77.816993   -47.170502   0.03704032    29.976104 0.0094084057        32400 
    3000    181.79352   -107.88471  0.042403286    72.298543   0.42822679        28900 
    4000    230.14091   -124.50299  0.030445589    103.57618    1.0343347        25600 
    5000    288.09587   -159.44786  0.032694934    126.06165    1.0910973        22500 
    6000    304.28217   -239.50493  0.031444155     62.04249    3.0050888        19600 
    7000    263.54589    -302.8233  0.027889844   -41.645387    1.4096691        16900 
    8000    303.94386   -323.74801  0.032710129   -22.534569    1.4593838        14400 
    9000    273.07675   -394.05273  0.031519205   -123.42698    1.6527788        12100 
   10000     274.4117   -364.10024  0.023493081   -92.159704   -3.9087985        10000 
Loop time of 1.195 on 1 procs for 10000 steps with 110 atoms

Performance: 723011.342 tau/day, 8368.187 timesteps/s
97.1% CPU use with 1 MPI tasks x no OpenMP threads

MPI task timing breakdown:
Section |  min time  |  avg time  |  max time  |%varavg| %total
---------------------------------------------------------------
Pair    | 0.89321    | 0.89321    | 0.89321    |   0.0 | 74.75
Bond    | 0.027019   | 0.027019   | 0.027019   |   0.0 |  2.26
Neigh   | 0.089643   | 0.089643   | 0.089643   |   0.0 |  7.50
Comm    | 0.019527   | 0.019527   | 0.019527   |   0.0 |  1.63
Output  | 0.005704   | 0.005704   | 0.005704   |   0.0 |  0.48
Modify  | 0.14594    | 0.14594    | 0.14594    |   0.0 | 12.21
Other   |            | 0.01396    |            |       |  1.17

Nlocal:    110 ave 110 max 110 min
Histogram: 1 0 0 0 0 0 0 0 0 0
Nghost:    74 ave 74 max 74 min
Histogram: 1 0 0 0 0 0 0 0 0 0
Neighs:    0 ave 0 max 0 min
Histogram: 1 0 0 0 0 0 0 0 0 0

Total # of neighbors = 0
Ave neighs/atom = 0
Ave special neighs/atom = 1.52727
Neighbor list builds = 2149
Dangerous builds = 0
WARNING: One or more atoms are time integrated more than once (../modify.cpp:283)
Neighbor list info ...
  update every 1 steps, delay 0 steps, check yes
  max neighbors/atom: 2000, page size: 100000
  master list distance cutoff = 18.7594
  ghost atom cutoff = 18.7594
  binsize = 9.37968, bins = 11 11 1
  3 neighbor lists, perpetual/occasional/extra = 3 0 0
  (1) pair lj/cut, perpetual, skip from (3)
      attributes: half, newton off
      pair build: skip
      stencil: none
      bin: none
  (2) pair gayberne, perpetual, skip from (3)
      attributes: half, newton off
      pair build: skip
      stencil: none
      bin: none
  (3) neighbor class addition, perpetual
      attributes: half, newton off
      pair build: half/bin/newtoff
      stencil: half/bin/2d/newtoff
      bin: standard

Please see the log.cite file for references relevant to this simulation

Total wall time: 0:00:01
