LAMMPS (12 Dec 2018)
#!/bin/sh

# Setup
echo		screen
  orthogonal box = (0 0 -0.5) to (200 200 0.5)
  1 by 1 by 1 MPI processor grid
  reading atoms ...
  30 atoms
  scanning bonds ...
  2 = max bonds/atom
  scanning angles ...
  3 = max angles/atom
  reading bonds ...
  29 bonds
  reading angles ...
  28 angles
  2 = max # of 1-2 neighbors
  2 = max # of 1-3 neighbors
  4 = max # of 1-4 neighbors
  6 = max # of special neighbors
  orthogonal box = (0 0 -0.5) to (200 200 0.5)
  1 by 1 by 1 MPI processor grid
  reading atoms ...
  318 atoms
  318 ellipsoids
  2 = max # of 1-2 neighbors
  2 = max # of 1-3 neighbors
  4 = max # of 1-4 neighbors
  6 = max # of special neighbors
30 atoms in group chain
318 atoms in group obs
  30 settings made for mass
  318 settings made for mass
  30 settings made for shape
  318 settings made for shape
  318 settings made for quat/random
WARNING: Using 'neigh_modify every 1 delay 0 check yes' setting during minimization (../min.cpp:168)
Neighbor list info ...
  update every 1 steps, delay 0 steps, check yes
  max neighbors/atom: 2000, page size: 100000
  master list distance cutoff = 4.78984
  ghost atom cutoff = 4.78984
  binsize = 2.39492, bins = 84 84 1
  3 neighbor lists, perpetual/occasional/extra = 3 0 0
  (1) pair lj/cut, perpetual, skip from (3)
      attributes: half, newton off
      pair build: skip
      stencil: none
      bin: none
  (2) pair gayberne, perpetual, skip from (3)
      attributes: half, newton off
      pair build: skip
      stencil: none
      bin: none
  (3) neighbor class addition, perpetual
      attributes: half, newton off
      pair build: half/bin/newtoff
      stencil: half/bin/2d/newtoff
      bin: standard
Per MPI rank memory allocation (min/avg/max) = 9.911 | 9.911 | 9.911 Mbytes
Step Temp E_pair E_mol TotEng Press 
       0    2.2259366     311839.8     1.400932    311843.42    16281.599 
      75    2.2259366 -0.0086206896 0.0018730937    2.2127926  0.019411718 
Loop time of 0.00276 on 1 procs for 75 steps with 348 atoms

99.8% CPU use with 1 MPI tasks x no OpenMP threads

Minimization stats:
  Stopping criterion = energy tolerance
  Energy initial, next-to-last, final = 
         311841.201021  -0.00674699958742  -0.00674759599146
  Force two-norm initial, final = 2.44641e+09 3.17304
  Force max component initial, final = 1.70166e+09 1.22533
  Final line search alpha, max atom move = 1.9898e-05 2.43816e-05
  Iterations, force evaluations = 75 237

MPI task timing breakdown:
Section |  min time  |  avg time  |  max time  |%varavg| %total
---------------------------------------------------------------
Pair    | 0.000259   | 0.000259   | 0.000259   |   0.0 |  9.38
Bond    | 0.000649   | 0.000649   | 0.000649   |   0.0 | 23.51
Neigh   | 0.000462   | 0.000462   | 0.000462   |   0.0 | 16.74
Comm    | 0.000262   | 0.000262   | 0.000262   |   0.0 |  9.49
Output  | 0          | 0          | 0          |   0.0 |  0.00
Modify  | 0          | 0          | 0          |   0.0 |  0.00
Other   |            | 0.001128   |            |       | 40.87

Nlocal:    348 ave 348 max 348 min
Histogram: 1 0 0 0 0 0 0 0 0 0
Nghost:    37 ave 37 max 37 min
Histogram: 1 0 0 0 0 0 0 0 0 0
Neighs:    0 ave 0 max 0 min
Histogram: 1 0 0 0 0 0 0 0 0 0

Total # of neighbors = 0
Ave neighs/atom = 0
Ave special neighs/atom = 0.482759
Neighbor list builds = 19
Dangerous builds = 0
WARNING: One or more atoms are time integrated more than once (../modify.cpp:283)
Neighbor list info ...
  update every 1 steps, delay 0 steps, check yes
  max neighbors/atom: 2000, page size: 100000
  master list distance cutoff = 5.28984
  ghost atom cutoff = 5.28984
  binsize = 2.64492, bins = 76 76 1
  3 neighbor lists, perpetual/occasional/extra = 3 0 0
  (1) pair lj/cut, perpetual, skip from (3)
      attributes: half, newton off
      pair build: skip
      stencil: none
      bin: none
  (2) pair gayberne, perpetual, skip from (3)
      attributes: half, newton off
      pair build: skip
      stencil: none
      bin: none
  (3) neighbor class addition, perpetual
      attributes: half, newton off
      pair build: half/bin/newtoff
      stencil: half/bin/2d/newtoff
      bin: standard
Per MPI rank memory allocation (min/avg/max) = 12.29 | 12.29 | 12.29 Mbytes
Step Temp E_pair E_mol TotEng Press Volume 
       0    2.2259366            0 0.0018730937    2.2214133  0.019411707        40000 
    1000    2.2616592   -8.6029424  0.014941964   -6.3328402  0.042509406        36100 
    2000    2.4495933   -5.7440914  0.012343601   -3.2891936  0.037559316        32400 
    3000    2.6297796   -11.471116  0.014024194   -8.8348687  0.060124608        28900 
    4000    2.9064954   -11.446123 0.0097607822   -8.5382186  0.089036169        25600 
    5000    3.3474396   -14.345782  0.011760788   -10.996201    0.1082146        22500 
    6000    3.9436997    -14.34013  0.010592595    -10.39717   0.13036932        19600 
    7000    4.9177441   -28.704077 0.0093949798   -23.791069     0.188748        16900 
    8000    6.5706562   -37.166052  0.010306887    -30.60397     0.522202        14400 
    9000    10.897176    -48.56363  0.010052819   -37.687715   0.90243712        12100 
   10000    26.011042   -131.23456 0.0083433711   -105.28992    2.7272662        10000 
Loop time of 0.616013 on 1 procs for 10000 steps with 348 atoms

Performance: 1402567.803 tau/day, 16233.424 timesteps/s
97.8% CPU use with 1 MPI tasks x no OpenMP threads

MPI task timing breakdown:
Section |  min time  |  avg time  |  max time  |%varavg| %total
---------------------------------------------------------------
Pair    | 0.024461   | 0.024461   | 0.024461   |   0.0 |  3.97
Bond    | 0.024445   | 0.024445   | 0.024445   |   0.0 |  3.97
Neigh   | 0.039283   | 0.039283   | 0.039283   |   0.0 |  6.38
Comm    | 0.016637   | 0.016637   | 0.016637   |   0.0 |  2.70
Output  | 0.015629   | 0.015629   | 0.015629   |   0.0 |  2.54
Modify  | 0.4771     | 0.4771     | 0.4771     |   0.0 | 77.45
Other   |            | 0.01845    |            |       |  3.00

Nlocal:    348 ave 348 max 348 min
Histogram: 1 0 0 0 0 0 0 0 0 0
Nghost:    69 ave 69 max 69 min
Histogram: 1 0 0 0 0 0 0 0 0 0
Neighs:    0 ave 0 max 0 min
Histogram: 1 0 0 0 0 0 0 0 0 0

Total # of neighbors = 0
Ave neighs/atom = 0
Ave special neighs/atom = 0.482759
Neighbor list builds = 711
Dangerous builds = 0
WARNING: One or more atoms are time integrated more than once (../modify.cpp:283)
Neighbor list info ...
  update every 1 steps, delay 0 steps, check yes
  max neighbors/atom: 2000, page size: 100000
  master list distance cutoff = 5.28984
  ghost atom cutoff = 5.28984
  binsize = 2.64492, bins = 38 38 1
  3 neighbor lists, perpetual/occasional/extra = 3 0 0
  (1) pair lj/cut, perpetual, skip from (3)
      attributes: half, newton off
      pair build: skip
      stencil: none
      bin: none
  (2) pair gayberne, perpetual, skip from (3)
      attributes: half, newton off
      pair build: skip
      stencil: none
      bin: none
  (3) neighbor class addition, perpetual
      attributes: half, newton off
      pair build: half/bin/newtoff
      stencil: half/bin/2d/newtoff
      bin: standard

Please see the log.cite file for references relevant to this simulation

Total wall time: 0:00:00
