LAMMPS (12 Dec 2018)
#!/bin/sh

# Setup
echo		screen
  orthogonal box = (0 0 -0.5) to (200 200 0.5)
  1 by 1 by 1 MPI processor grid
  reading atoms ...
  30 atoms
  scanning bonds ...
  2 = max bonds/atom
  scanning angles ...
  3 = max angles/atom
  reading bonds ...
  29 bonds
  reading angles ...
  28 angles
  2 = max # of 1-2 neighbors
  2 = max # of 1-3 neighbors
  4 = max # of 1-4 neighbors
  6 = max # of special neighbors
  orthogonal box = (0 0 -0.5) to (200 200 0.5)
  1 by 1 by 1 MPI processor grid
  reading atoms ...
  64 atoms
  64 ellipsoids
  2 = max # of 1-2 neighbors
  2 = max # of 1-3 neighbors
  4 = max # of 1-4 neighbors
  6 = max # of special neighbors
30 atoms in group chain
64 atoms in group obs
  30 settings made for mass
  64 settings made for mass
  30 settings made for shape
  64 settings made for shape
  64 settings made for quat/random
WARNING: Using 'neigh_modify every 1 delay 0 check yes' setting during minimization (../min.cpp:168)
Neighbor list info ...
  update every 1 steps, delay 0 steps, check yes
  max neighbors/atom: 2000, page size: 100000
  master list distance cutoff = 22.7492
  ghost atom cutoff = 22.7492
  binsize = 11.3746, bins = 18 18 1
  3 neighbor lists, perpetual/occasional/extra = 3 0 0
  (1) pair lj/cut, perpetual, skip from (3)
      attributes: half, newton off
      pair build: skip
      stencil: none
      bin: none
  (2) pair gayberne, perpetual, skip from (3)
      attributes: half, newton off
      pair build: skip
      stencil: none
      bin: none
  (3) neighbor class addition, perpetual
      attributes: half, newton off
      pair build: half/bin/newtoff
      stencil: half/bin/2d/newtoff
      bin: standard
Per MPI rank memory allocation (min/avg/max) = 9.879 | 9.879 | 9.879 Mbytes
Step Temp E_pair E_mol TotEng Press 
       0    1.7505376   -0.3152058    5.1864292    6.6031383  0.026694016 
      51    1.7505376  -0.32338338  0.010175658    1.4187072 0.00072921875 
Loop time of 0.010581 on 1 procs for 51 steps with 94 atoms

99.5% CPU use with 1 MPI tasks x no OpenMP threads

Minimization stats:
  Stopping criterion = linesearch alpha is zero
  Energy initial, next-to-last, final = 
         4.87122339883    -0.313207721908    -0.313207721908
  Force two-norm initial, final = 1064.66 14.1831
  Force max component initial, final = 374.091 5.02431
  Final line search alpha, max atom move = 3.48803e-09 1.7525e-08
  Iterations, force evaluations = 51 138

MPI task timing breakdown:
Section |  min time  |  avg time  |  max time  |%varavg| %total
---------------------------------------------------------------
Pair    | 0.009699   | 0.009699   | 0.009699   |   0.0 | 91.66
Bond    | 0.000334   | 0.000334   | 0.000334   |   0.0 |  3.16
Neigh   | 0.000165   | 0.000165   | 0.000165   |   0.0 |  1.56
Comm    | 0.000149   | 0.000149   | 0.000149   |   0.0 |  1.41
Output  | 0          | 0          | 0          |   0.0 |  0.00
Modify  | 0          | 0          | 0          |   0.0 |  0.00
Other   |            | 0.000234   |            |       |  2.21

Nlocal:    94 ave 94 max 94 min
Histogram: 1 0 0 0 0 0 0 0 0 0
Nghost:    46 ave 46 max 46 min
Histogram: 1 0 0 0 0 0 0 0 0 0
Neighs:    0 ave 0 max 0 min
Histogram: 1 0 0 0 0 0 0 0 0 0

Total # of neighbors = 0
Ave neighs/atom = 0
Ave special neighs/atom = 1.78723
Neighbor list builds = 11
Dangerous builds = 0
WARNING: One or more atoms are time integrated more than once (../modify.cpp:283)
Neighbor list info ...
  update every 1 steps, delay 0 steps, check yes
  max neighbors/atom: 2000, page size: 100000
  master list distance cutoff = 23.2492
  ghost atom cutoff = 23.2492
  binsize = 11.6246, bins = 18 18 1
  3 neighbor lists, perpetual/occasional/extra = 3 0 0
  (1) pair lj/cut, perpetual, skip from (3)
      attributes: half, newton off
      pair build: skip
      stencil: none
      bin: none
  (2) pair gayberne, perpetual, skip from (3)
      attributes: half, newton off
      pair build: skip
      stencil: none
      bin: none
  (3) neighbor class addition, perpetual
      attributes: half, newton off
      pair build: half/bin/newtoff
      stencil: half/bin/2d/newtoff
      bin: standard
Per MPI rank memory allocation (min/avg/max) = 12.17 | 12.17 | 12.17 Mbytes
Step Temp E_pair E_mol TotEng Press Volume 
       0    1.7505376  -0.32271353  0.010175658     1.419377 0.00073611089        40000 
    1000    9.2756444      -5.4247  0.052721347    3.8049888 -0.042463488        36100 
    2000    107.41389   -53.138361  0.046503183    53.179335  -0.16863289        32400 
    3000     200.2806   -83.298609  0.055709243    114.90705   0.93267578        28900 
    4000    278.42268   -100.14164  0.034143492    175.35324    1.0364669        25600 
    5000    241.13342   -124.82639  0.043767001    113.78555  -0.20766576        22500 
    6000     211.7289   -143.29935  0.039702075    66.216821  -0.45342958        19600 
    7000    273.82685   -235.25255  0.037484484    35.698732   0.58007628        16900 
    8000    272.34442   -244.04278  0.037893258    25.442256  -0.27373807        14400 
    9000    263.32969   -319.01694  0.037094941   -58.451538   0.13600854        12100 
   10000    296.76024    -458.0951  0.032454161   -164.45943    5.4369757        10000 
Loop time of 1.17233 on 1 procs for 10000 steps with 94 atoms

Performance: 736991.335 tau/day, 8529.992 timesteps/s
97.9% CPU use with 1 MPI tasks x no OpenMP threads

MPI task timing breakdown:
Section |  min time  |  avg time  |  max time  |%varavg| %total
---------------------------------------------------------------
Pair    | 0.91536    | 0.91536    | 0.91536    |   0.0 | 78.08
Bond    | 0.024414   | 0.024414   | 0.024414   |   0.0 |  2.08
Neigh   | 0.080034   | 0.080034   | 0.080034   |   0.0 |  6.83
Comm    | 0.018449   | 0.018449   | 0.018449   |   0.0 |  1.57
Output  | 0.004899   | 0.004899   | 0.004899   |   0.0 |  0.42
Modify  | 0.11712    | 0.11712    | 0.11712    |   0.0 |  9.99
Other   |            | 0.01206    |            |       |  1.03

Nlocal:    94 ave 94 max 94 min
Histogram: 1 0 0 0 0 0 0 0 0 0
Nghost:    75 ave 75 max 75 min
Histogram: 1 0 0 0 0 0 0 0 0 0
Neighs:    0 ave 0 max 0 min
Histogram: 1 0 0 0 0 0 0 0 0 0

Total # of neighbors = 0
Ave neighs/atom = 0
Ave special neighs/atom = 1.78723
Neighbor list builds = 2164
Dangerous builds = 0
WARNING: One or more atoms are time integrated more than once (../modify.cpp:283)
Neighbor list info ...
  update every 1 steps, delay 0 steps, check yes
  max neighbors/atom: 2000, page size: 100000
  master list distance cutoff = 23.2492
  ghost atom cutoff = 23.2492
  binsize = 11.6246, bins = 9 9 1
  3 neighbor lists, perpetual/occasional/extra = 3 0 0
  (1) pair lj/cut, perpetual, skip from (3)
      attributes: half, newton off
      pair build: skip
      stencil: none
      bin: none
  (2) pair gayberne, perpetual, skip from (3)
      attributes: half, newton off
      pair build: skip
      stencil: none
      bin: none
  (3) neighbor class addition, perpetual
      attributes: half, newton off
      pair build: half/bin/newtoff
      stencil: half/bin/2d/newtoff
      bin: standard

Please see the log.cite file for references relevant to this simulation

Total wall time: 0:00:01
