LAMMPS (12 Dec 2018)
#!/bin/sh

# Setup
echo		screen
  orthogonal box = (0 0 -0.5) to (200 200 0.5)
  1 by 1 by 1 MPI processor grid
  reading atoms ...
  30 atoms
  scanning bonds ...
  2 = max bonds/atom
  scanning angles ...
  3 = max angles/atom
  reading bonds ...
  29 bonds
  reading angles ...
  28 angles
  2 = max # of 1-2 neighbors
  2 = max # of 1-3 neighbors
  4 = max # of 1-4 neighbors
  6 = max # of special neighbors
  orthogonal box = (0 0 -0.5) to (200 200 0.5)
  1 by 1 by 1 MPI processor grid
  reading atoms ...
  106 atoms
  106 ellipsoids
  2 = max # of 1-2 neighbors
  2 = max # of 1-3 neighbors
  4 = max # of 1-4 neighbors
  6 = max # of special neighbors
30 atoms in group chain
106 atoms in group obs
  30 settings made for mass
  106 settings made for mass
  30 settings made for shape
  106 settings made for shape
  106 settings made for quat/random
WARNING: Using 'neigh_modify every 1 delay 0 check yes' setting during minimization (../min.cpp:168)
Neighbor list info ...
  update every 1 steps, delay 0 steps, check yes
  max neighbors/atom: 2000, page size: 100000
  master list distance cutoff = 13.7695
  ghost atom cutoff = 13.7695
  binsize = 6.88476, bins = 30 30 1
  3 neighbor lists, perpetual/occasional/extra = 3 0 0
  (1) pair lj/cut, perpetual, skip from (3)
      attributes: half, newton off
      pair build: skip
      stencil: none
      bin: none
  (2) pair gayberne, perpetual, skip from (3)
      attributes: half, newton off
      pair build: skip
      stencil: none
      bin: none
  (3) neighbor class addition, perpetual
      attributes: half, newton off
      pair build: half/bin/newtoff
      stencil: half/bin/2d/newtoff
      bin: standard
Per MPI rank memory allocation (min/avg/max) = 9.882 | 9.882 | 9.882 Mbytes
Step Temp E_pair E_mol TotEng Press 
       0    1.9525926 -0.00094922489    3.5847378    5.5220239  0.031948221 
     145    1.9525926 -0.0011529372 0.00069360942     1.937776 0.0065750303 
Loop time of 0.006872 on 1 procs for 145 steps with 136 atoms

96.0% CPU use with 1 MPI tasks x no OpenMP threads

Minimization stats:
  Stopping criterion = energy tolerance
  Energy initial, next-to-last, final = 
         3.58378860413  -0.00045930367376 -0.000459327800463
  Force two-norm initial, final = 1064.66 0.530551
  Force max component initial, final = 374.093 0.148366
  Final line search alpha, max atom move = 0.30886 0.0458245
  Iterations, force evaluations = 145 372

MPI task timing breakdown:
Section |  min time  |  avg time  |  max time  |%varavg| %total
---------------------------------------------------------------
Pair    | 0.004375   | 0.004375   | 0.004375   |   0.0 | 63.66
Bond    | 0.0011     | 0.0011     | 0.0011     |   0.0 | 16.01
Neigh   | 0.000219   | 0.000219   | 0.000219   |   0.0 |  3.19
Comm    | 0.000276   | 0.000276   | 0.000276   |   0.0 |  4.02
Output  | 0          | 0          | 0          |   0.0 |  0.00
Modify  | 0          | 0          | 0          |   0.0 |  0.00
Other   |            | 0.000902   |            |       | 13.13

Nlocal:    136 ave 136 max 136 min
Histogram: 1 0 0 0 0 0 0 0 0 0
Nghost:    22 ave 22 max 22 min
Histogram: 1 0 0 0 0 0 0 0 0 0
Neighs:    0 ave 0 max 0 min
Histogram: 1 0 0 0 0 0 0 0 0 0

Total # of neighbors = 0
Ave neighs/atom = 0
Ave special neighs/atom = 1.23529
Neighbor list builds = 14
Dangerous builds = 0
WARNING: One or more atoms are time integrated more than once (../modify.cpp:283)
Neighbor list info ...
  update every 1 steps, delay 0 steps, check yes
  max neighbors/atom: 2000, page size: 100000
  master list distance cutoff = 14.2695
  ghost atom cutoff = 14.2695
  binsize = 7.13476, bins = 29 29 1
  3 neighbor lists, perpetual/occasional/extra = 3 0 0
  (1) pair lj/cut, perpetual, skip from (3)
      attributes: half, newton off
      pair build: skip
      stencil: none
      bin: none
  (2) pair gayberne, perpetual, skip from (3)
      attributes: half, newton off
      pair build: skip
      stencil: none
      bin: none
  (3) neighbor class addition, perpetual
      attributes: half, newton off
      pair build: half/bin/newtoff
      stencil: half/bin/2d/newtoff
      bin: standard
Per MPI rank memory allocation (min/avg/max) = 12.18 | 12.18 | 12.18 Mbytes
Step Temp E_pair E_mol TotEng Press Volume 
       0    1.9525926            0 0.00069360942    1.9389289  0.006587532        40000 
    1000    22.339497   -21.063801  0.034648602    1.1460834   0.14436425        36100 
    2000    114.97302   -64.936076  0.029893389    49.221446   0.33470948        32400 
    3000    232.58077   -109.00021   0.03401997    121.90443   0.64199121        28900 
    4000    279.74237   -173.54843  0.024795615    104.16181    1.5459119        25600 
    5000     301.0982   -285.16192  0.026471484    13.748795    1.7272659        22500 
    6000    280.61709   -289.50199  0.025414789   -10.922842   0.62807413        19600 
    7000    285.31356   -347.05179  0.022573886    -63.81355    0.2589897        16900 
    8000    289.98292    -356.0775  0.026668641   -68.200132   -1.7314514        14400 
    9000    278.04917   -498.46471  0.025586588   -222.43443    2.8714337        12100 
   10000    287.48606   -612.90739  0.019033706   -327.51617   -2.0597874        10000 
Loop time of 1.2219 on 1 procs for 10000 steps with 136 atoms

Performance: 707093.192 tau/day, 8183.949 timesteps/s
96.4% CPU use with 1 MPI tasks x no OpenMP threads

MPI task timing breakdown:
Section |  min time  |  avg time  |  max time  |%varavg| %total
---------------------------------------------------------------
Pair    | 0.8767     | 0.8767     | 0.8767     |   0.0 | 71.75
Bond    | 0.024822   | 0.024822   | 0.024822   |   0.0 |  2.03
Neigh   | 0.094272   | 0.094272   | 0.094272   |   0.0 |  7.72
Comm    | 0.018592   | 0.018592   | 0.018592   |   0.0 |  1.52
Output  | 0.00832    | 0.00832    | 0.00832    |   0.0 |  0.68
Modify  | 0.18422    | 0.18422    | 0.18422    |   0.0 | 15.08
Other   |            | 0.01498    |            |       |  1.23

Nlocal:    136 ave 136 max 136 min
Histogram: 1 0 0 0 0 0 0 0 0 0
Nghost:    59 ave 59 max 59 min
Histogram: 1 0 0 0 0 0 0 0 0 0
Neighs:    0 ave 0 max 0 min
Histogram: 1 0 0 0 0 0 0 0 0 0

Total # of neighbors = 0
Ave neighs/atom = 0
Ave special neighs/atom = 1.23529
Neighbor list builds = 2207
Dangerous builds = 0
WARNING: One or more atoms are time integrated more than once (../modify.cpp:283)
Neighbor list info ...
  update every 1 steps, delay 0 steps, check yes
  max neighbors/atom: 2000, page size: 100000
  master list distance cutoff = 14.2695
  ghost atom cutoff = 14.2695
  binsize = 7.13476, bins = 15 15 1
  3 neighbor lists, perpetual/occasional/extra = 3 0 0
  (1) pair lj/cut, perpetual, skip from (3)
      attributes: half, newton off
      pair build: skip
      stencil: none
      bin: none
  (2) pair gayberne, perpetual, skip from (3)
      attributes: half, newton off
      pair build: skip
      stencil: none
      bin: none
  (3) neighbor class addition, perpetual
      attributes: half, newton off
      pair build: half/bin/newtoff
      stencil: half/bin/2d/newtoff
      bin: standard

Please see the log.cite file for references relevant to this simulation

Total wall time: 0:00:01
