LAMMPS (22 Aug 2018)
#!/bin/sh

# Setup
echo		screen
  restoring atom style hybrid from restart
  orthogonal box = (0 0 -0.5) to (70 70 0.5)
  3 by 2 by 1 MPI processor grid
  restoring pair style hybrid/overlay from restart
  restoring bond style harmonic from restart
  restoring angle style actharmonic from restart
  341 atoms
  29 bonds
  28 angles
  2 = max # of 1-2 neighbors
  2 = max # of 1-3 neighbors
  4 = max # of 1-4 neighbors
  6 = max # of special neighbors
30 atoms in group chain
311 atoms in group obs
WARNING: Using 'neigh_modify every 1 delay 0 check yes' setting during minimization (../min.cpp:168)
Neighbor list info ...
  update every 1 steps, delay 0 steps, check yes
  max neighbors/atom: 2000, page size: 100000
  master list distance cutoff = 4.3
  ghost atom cutoff = 4.3
  binsize = 2.15, bins = 33 33 1
  3 neighbor lists, perpetual/occasional/extra = 3 0 0
  (1) pair lj/cut, perpetual, skip from (3)
      attributes: half, newton off
      pair build: skip
      stencil: none
      bin: none
  (2) pair gayberne, perpetual, skip from (3)
      attributes: half, newton off
      pair build: skip
      stencil: none
      bin: none
  (3) neighbor class addition, perpetual
      attributes: half, newton off
      pair build: half/bin/newtoff
      stencil: half/bin/2d/newtoff
      bin: standard
Per MPI rank memory allocation (min/avg/max) = 9.007 | 9.241 | 10.15 Mbytes
Step Temp E_pair E_mol TotEng Press 
  200000    461.41335     20694.53   0.18786988    21154.778    697.49657 
  200179    461.41335   -1293.8917  0.096969902   -833.73454    31.212024 
Loop time of 0.02917 on 6 procs for 179 steps with 341 atoms

97.5% CPU use with 6 MPI tasks x no OpenMP threads

Minimization stats:
  Stopping criterion = energy tolerance
  Energy initial, next-to-last, final = 
         20694.7182486      -1293.7263778     -1293.79477456
  Force two-norm initial, final = 1.0016e+09 1008.93
  Force max component initial, final = 6.72171e+08 242.457
  Final line search alpha, max atom move = 0.000190772 0.046254
  Iterations, force evaluations = 179 291

MPI task timing breakdown:
Section |  min time  |  avg time  |  max time  |%varavg| %total
---------------------------------------------------------------
Pair    | 0.011873   | 0.015672   | 0.020506   |   2.4 | 53.73
Bond    | 2.4e-05    | 0.000175   | 0.000437   |   0.0 |  0.60
Neigh   | 0.001658   | 0.0017033  | 0.00174    |   0.1 |  5.84
Comm    | 0.002385   | 0.0024343  | 0.002532   |   0.1 |  8.35
Output  | 0          | 0          | 0          |   0.0 |  0.00
Modify  | 0          | 0          | 0          |   0.0 |  0.00
Other   |            | 0.009186   |            |       | 31.49

Nlocal:    56.8333 ave 67 max 50 min
Histogram: 2 1 0 0 1 0 0 1 0 1
Nghost:    42.6667 ave 56 max 30 min
Histogram: 1 0 1 0 1 1 1 0 0 1
Neighs:    0 ave 0 max 0 min
Histogram: 6 0 0 0 0 0 0 0 0 0

Total # of neighbors = 0
Ave neighs/atom = 0
Ave special neighs/atom = 0.492669
Neighbor list builds = 74
Dangerous builds = 0
WARNING: One or more atoms are time integrated more than once (../modify.cpp:279)
Neighbor list info ...
  update every 1 steps, delay 0 steps, check yes
  max neighbors/atom: 2000, page size: 100000
  master list distance cutoff = 4.8
  ghost atom cutoff = 4.8
  binsize = 2.4, bins = 30 30 1
  3 neighbor lists, perpetual/occasional/extra = 3 0 0
  (1) pair lj/cut, perpetual, skip from (3)
      attributes: half, newton off
      pair build: skip
      stencil: none
      bin: none
  (2) pair gayberne, perpetual, skip from (3)
      attributes: half, newton off
      pair build: skip
      stencil: none
      bin: none
  (3) neighbor class addition, perpetual
      attributes: half, newton off
      pair build: half/bin/newtoff
      stencil: half/bin/2d/newtoff
      bin: standard
Per MPI rank memory allocation (min/avg/max) = 8.629 | 8.759 | 9.021 Mbytes
Step Temp E_pair E_mol TotEng Press 
       0    461.41335   -1294.2122  0.096969902   -834.05505    31.075611 
    1000    438.88099   -740.51404   0.16014646   -302.75994      26.6838 
    2000    436.77677   -703.25622   0.16812252   -267.59219    53.502603 
    3000    437.36105   -734.49743   0.15143128   -298.26753    35.090798 
    4000    464.25189   -730.45253   0.13239624   -267.42969    53.141246 
    5000     448.1014    -743.7344   0.15617716    -296.7909    29.972635 
    6000    429.26866   -715.75988   0.15943532   -287.59063    35.598559 
    7000     451.3827   -761.09392   0.18042347    -310.8545    32.929945 
    8000    442.47479   -724.87939   0.15091381   -283.55127    24.207664 
    9000    456.70452   -737.34493   0.16383901   -281.81589    18.865169 
   10000    448.41269   -725.52077   0.19328979   -278.22978    15.085662 
   11000    446.46295   -715.72256   0.12997204   -270.43891     24.38632 
   12000    481.04784   -762.24884   0.16468111   -282.44702    52.621834 
   13000    422.82439   -706.12939   0.14755124   -284.39741    24.700123 
   14000    457.22777   -774.77858   0.16640327   -318.72525    24.858944 
   15000    457.58209   -763.28251   0.13883638   -306.90346    24.723197 
   16000    441.98377   -713.90251   0.14322446   -273.07165     49.22163 
   17000    431.07132   -719.66093   0.12430347   -289.72945    51.969558 
   18000    461.81794   -745.18884   0.15529444   -284.56991    42.514876 
   19000    452.72152   -729.40945   0.11792938   -277.89763    39.204759 
   20000     478.0145   -724.15081   0.14144737   -247.39667    21.078858 
   21000    436.85069   -715.71402   0.10204955   -280.04236    41.449618 
   22000     444.7213   -720.80825   0.16063077   -277.23049    52.738305 
   23000    433.06112   -773.11108   0.11893253     -341.201    9.4898389 
   24000    447.38301   -770.24608   0.15686893   -324.01817    38.407151 
   25000    443.14977   -717.71201   0.13886211   -275.72294    30.310899 
   26000    457.69279   -741.40583   0.16831356   -284.88694    49.796948 
   27000    449.61974   -736.22961   0.18034559   -287.74805    35.528082 
   28000    452.56151   -724.22126   0.16387568   -272.82304    11.513128 
   29000    436.13198    -717.7329   0.16317339   -282.71672    42.249089 
   30000    419.82402   -685.44081   0.18339399   -266.66454    54.456028 
   31000    456.63076   -733.17067   0.16583315   -277.71317    33.567705 
   32000    466.86349   -798.39995   0.16027833   -332.74529    21.591265 
   33000    433.19665   -706.85815   0.16285713   -274.76901    28.026375 
   34000    425.66034   -750.24543   0.14576606    -325.6876    16.708406 
   35000    432.92922   -719.08647   0.15630564   -287.27053    20.726585 
   36000    465.86403   -731.01811   0.14057604   -266.37967    25.257295 
   37000    427.19047   -714.41946   0.15817909   -288.32357    38.434538 
   38000    427.34313   -706.89063   0.17600339    -280.6247    19.385314 
   39000    415.58271   -710.88691   0.19078993   -296.33213    37.446309 
   40000    458.38866   -750.38385   0.19081331   -293.14863    29.055956 
   41000    445.15281   -764.69832   0.17645273   -320.67449    27.336759 
   42000    462.43356   -735.08466   0.17361612    -273.8336    3.8542354 
   43000    467.17195   -724.70422   0.15034631   -258.75193    28.493709 
   44000     458.2905   -729.42262    0.1526696   -272.32341    30.007352 
   45000     458.9936   -740.58566   0.16157334    -282.7765    32.874612 
   46000    431.16219   -700.32082   0.18298528   -270.24005    15.334402 
   47000     462.3265   -744.49131   0.18618765   -283.33442    9.4568873 
   48000    438.33465   -710.80843   0.16866017   -273.59056    29.753267 
   49000    447.81027     -749.455   0.11923089   -302.83872    42.671691 
   50000    453.60124   -695.16436   0.14043852   -242.75289    35.527786 
   51000    460.84324   -765.24731   0.13892643    -305.6166    30.726028 
   52000    465.59873   -714.78641   0.11056344   -250.44251    4.4871303 
   53000    461.40908   -742.73076   0.13907565   -282.53571    26.932606 
   54000    432.54375   -746.14781   0.11495901   -314.75757    47.650635 
   55000    457.47952   -742.14893   0.12533622   -285.88566    48.246587 
   56000    467.89568   -747.21031   0.12663368   -280.56013    35.288514 
   57000    441.32246   -707.86844   0.15307564   -267.68711      48.9179 
   58000    437.10431   -743.97402   0.14671167   -308.00483    32.096895 
   59000    425.31535   -726.43338   0.16254568   -302.20275    34.383066 
   60000     461.1654   -712.92572   0.15935092   -252.95336    11.617878 
   61000    423.51727   -766.64528   0.15379557    -344.2162    33.191556 
   62000    463.82706   -722.60433   0.17490728   -259.96255    32.414524 
   63000    457.57275   -742.10238   0.17648766     -285.695    42.467058 
   64000    462.16571   -724.11165   0.17496864    -263.1263    31.017223 
   65000    456.10484   -745.84274   0.18086078   -290.89459    25.538792 
   66000    464.00834   -694.72794   0.19726002   -231.88307    27.476749 
   67000     444.2641   -717.58023   0.17760443   -274.44135    23.534829 
   68000    439.89357   -728.58046   0.18451358   -289.79239    27.880276 
   69000     436.3007   -714.10998   0.18153028   -278.90722    17.890133 
   70000    455.42246   -787.07771   0.15511888   -332.83568    24.348103 
   71000    446.11039   -757.45376   0.18180402   -312.46981    55.791797 
   72000    439.66209   -698.78064   0.13562156   -260.27226    6.0386908 
   73000    473.51399    -756.3357   0.16977026   -284.04054     17.09553 
   74000    470.79332   -720.80881   0.16098548   -251.23514    38.826238 
   75000    489.70126   -718.48964   0.14472729   -230.07973    11.336246 
   76000    467.67403   -723.31341   0.14123683   -256.86961    30.211461 
   77000    493.09926   -771.19152   0.12098474   -279.41731     28.34558 
   78000    431.39593   -725.13684   0.13163452   -294.87436    40.070339 
   79000    459.83462   -741.76795   0.11126939   -283.17054    41.075214 
   80000    454.16232   -700.14695   0.14850457   -247.16797    22.026817 
   81000    440.83409   -750.57919   0.12460034   -310.91327    40.806755 
   82000     461.2618   -740.53312   0.13290237   -280.49109    21.116554 
   83000    445.03744   -747.05794    0.1359734   -303.18962    34.066016 
   84000     468.2746   -724.71236   0.18517302   -257.62582    16.957211 
   85000    432.09869   -699.87066   0.13892418    -268.9002    32.533339 
   86000    448.09449   -714.36441   0.14519413   -267.43879    39.571712 
   87000    410.77193   -722.20489   0.18237493    -312.4552    55.087054 
   88000    439.47501   -698.39247   0.19679458   -260.00945    3.7231518 
   89000     445.0528   -712.10088   0.16502362    -268.1882    41.193233 
   90000    439.69115    -745.1384   0.20137637   -306.53529    56.170588 
Loop time of 7.30212 on 6 procs for 90000 steps with 341 atoms

Performance: 1064896.514 tau/day, 12325.191 timesteps/s
99.3% CPU use with 6 MPI tasks x no OpenMP threads

MPI task timing breakdown:
Section |  min time  |  avg time  |  max time  |%varavg| %total
---------------------------------------------------------------
Pair    | 3.7334     | 3.778      | 3.845      |   1.8 | 51.74
Bond    | 0.006857   | 0.045962   | 0.14031    |  22.2 |  0.63
Neigh   | 0.62516    | 0.64406    | 0.65612    |   1.4 |  8.82
Comm    | 0.74714    | 0.78651    | 0.83107    |   2.7 | 10.77
Output  | 0.002394   | 0.0027427  | 0.003737   |   0.9 |  0.04
Modify  | 0.62997    | 0.64473    | 0.67737    |   2.1 |  8.83
Other   |            | 1.4        |            |       | 19.17

Nlocal:    56.8333 ave 74 max 45 min
Histogram: 1 0 1 2 0 1 0 0 0 1
Nghost:    50.1667 ave 63 max 42 min
Histogram: 2 1 0 1 0 0 0 1 0 1
Neighs:    0 ave 0 max 0 min
Histogram: 6 0 0 0 0 0 0 0 0 0

Total # of neighbors = 0
Ave neighs/atom = 0
Ave special neighs/atom = 0.492669
Neighbor list builds = 22413
Dangerous builds = 0
WARNING: One or more atoms are time integrated more than once (../modify.cpp:279)
Neighbor list info ...
  update every 1 steps, delay 0 steps, check yes
  max neighbors/atom: 2000, page size: 100000
  master list distance cutoff = 4.8
  ghost atom cutoff = 4.8
  binsize = 2.4, bins = 30 30 1
  3 neighbor lists, perpetual/occasional/extra = 3 0 0
  (1) pair lj/cut, perpetual, skip from (3)
      attributes: half, newton off
      pair build: skip
      stencil: none
      bin: none
  (2) pair gayberne, perpetual, skip from (3)
      attributes: half, newton off
      pair build: skip
      stencil: none
      bin: none
  (3) neighbor class addition, perpetual
      attributes: half, newton off
      pair build: half/bin/newtoff
      stencil: half/bin/2d/newtoff
      bin: standard
Per MPI rank memory allocation (min/avg/max) = 10.78 | 10.98 | 11.18 Mbytes
Step Temp E_pair E_mol TotEng Press 
       0    439.69115    -745.1384   0.20137637   -306.53529    56.170588 
    1000    435.20967   -709.86666   0.17957707   -275.75369    4.6053183 
    2000    452.82865   -735.92782   0.14354387   -284.28357    11.789431 
    3000    442.78086   -685.33702   0.11741614   -243.73722    20.520821 
    4000    461.60677   -749.49802   0.14083578    -289.1041    28.528116 
    5000    433.80941   -696.48858   0.14001902   -263.81133    47.081401 
    6000    465.54902   -737.82582   0.12591159   -273.51614    34.032357 
    7000     473.8462   -758.56359   0.16286959   -285.94409    41.139846 
    8000    480.32457   -756.05114   0.16731989   -276.96783    20.598989 
    9000    437.18586   -761.33035   0.17276951   -325.25379    47.271503 
   10000    463.16091   -656.41209   0.17528168   -194.43414    49.082412 
   11000    446.71133   -724.32517   0.16199971   -278.76184    22.815887 
   12000    453.89503   -725.79463   0.17067064   -273.06001    8.7645266 
   13000    450.82698   -728.58197   0.14528179   -278.93178    31.472053 
   14000    434.84182   -717.38906   0.12847837   -283.69396    22.949016 
   15000    444.37116   -711.39673     0.132928   -268.19579    52.887553 
   16000    455.64031   -707.58977   0.12298833   -253.16266    38.359167 
   17000    421.53508   -708.66814   0.14023818     -288.229    20.929143 
   18000     420.2033   -729.13703   0.17663584   -309.98936    16.089783 
   19000    407.31055   -691.93116   0.15445795   -285.66061    25.371872 
   20000    460.59153   -717.39631   0.17304636   -257.98244    44.015267 
   21000    447.31897   -725.89048   0.14405599   -279.73924    33.861879 
   22000    409.83097   -706.67738   0.17139785   -297.87686    13.354991 
   23000    432.79186   -729.32091   0.16797746   -297.63026     46.27881 
   24000    445.43917   -714.02603   0.12975849   -269.76338    33.601173 
   25000    454.48272   -695.33839   0.18435221   -242.00411    44.376475 
   26000    473.79447   -726.25953   0.14280878   -253.71167    51.005764 
   27000    445.19791    -720.3973    0.1987524   -276.30621    43.196994 
   28000    449.39875   -750.47616   0.14575877   -302.24954    44.186859 
   29000    447.75221   -754.58616   0.14023824   -308.00677    25.025781 
   30000    451.02172   -765.49265    0.1405994   -315.65297    28.555996 
   31000    440.29333   -735.06302   0.15336187   -295.90752    32.356568 
   32000    442.98974   -721.73676    0.1238584   -279.92225    19.871649 
   33000     455.7472   -724.97176   0.12075901    -270.4403    42.069456 
   34000    442.16441   -751.86148   0.14117649   -310.85257    40.815323 
   35000    466.07238   -746.65378   0.16155774   -281.78662    66.141739 
   36000    427.91615   -720.09417   0.13769903   -293.29521    34.656664 
   37000    456.07549   -723.89573    0.1245288   -269.03317    31.859302 
   38000    452.23122   -735.27064   0.16284379   -284.20277      38.4491 
   39000    455.89208   -703.41024   0.16086276   -248.69422    35.435404 
   40000    442.73432   -727.59598     0.143559   -286.01644    32.444232 
   41000    452.88784   -737.96163   0.12668257   -286.27522    16.129928 
   42000     431.4237   -768.91629   0.15129588   -338.60646    42.151073 
   43000    479.61948   -743.51554   0.14059639   -265.16198    32.000429 
   44000    435.88108     -725.054   0.14472927   -290.30644    58.404547 
   45000     433.7966   -736.14026   0.10177615   -303.51402    11.527343 
   46000    444.10753   -709.86645   0.15467903    -266.9066    37.432579 
   47000    460.00737   -740.62963   0.13661178   -281.83464    26.926686 
   48000    441.92449   -714.24049   0.17012377   -273.44184    23.587182 
   49000    442.58616    -706.9368   0.13509599   -265.51345    57.550559 
   50000    453.91959   -729.62209    0.1512791   -276.88236    46.094779 
   51000    448.64942    -731.4772    0.1427112   -284.00075    37.190698 
   52000    460.87709   -732.63715   0.12972593   -272.98188    31.899886 
   53000    454.70663   -708.11202   0.13899198   -254.59986    56.216485 
   54000    430.56745   -749.83293   0.15111193   -320.37703    31.591447 
   55000    471.09336   -695.01402   0.15506431    -225.1471    35.811876 
   56000    454.46721   -726.76714   0.16175041   -273.47093    50.032311 
   57000    474.35268   -752.97992   0.13545361   -279.88285    33.449115 
   58000    471.46187   -742.70524   0.14979545   -272.47615    23.166128 
   59000    461.30746   -746.77603   0.17883894   -286.64255    22.536462 
   60000    432.86968   -692.48846   0.13879067    -260.7494    57.481583 
   61000    445.40195   -679.12371   0.14162341    -234.8863    57.121168 
   62000    476.34232   -747.24325   0.12120663   -272.17662    30.612583 
   63000     448.9657   -723.24813   0.16648883   -275.43255     47.81803 
   64000    429.88635   -746.93528   0.14614321   -318.16344    18.939743 
   65000    418.20288   -680.24702    0.1763705   -263.09418    29.948606 
   66000    480.00465   -758.34485   0.16539371   -279.58244    8.7354759 
   67000    421.78319   -737.19346   0.15449166   -316.49268    41.909237 
   68000    460.49363   -735.99494   0.16890923   -276.68283    41.898941 
   69000     429.6897    -729.0804   0.17040093   -300.48039    25.019406 
   70000     431.0627   -707.28453   0.15297987   -277.33296    43.551193 
   71000    413.00077   -748.47183   0.18501217    -336.4972    28.037667 
   72000     459.3064   -750.78409   0.17291296   -292.65172    35.498302 
   73000    419.49677   -732.71765   0.17722003   -314.27386     37.17692 
   74000    456.49256   -759.58988   0.14621653   -304.28979    19.320494 
   75000     452.4037    -722.5569   0.15790448     -271.322    23.679405 
   76000    449.44939   -720.29191   0.18344759   -271.97711    48.155839 
   77000    443.65105   -746.92288   0.14473235   -304.42813    38.409297 
   78000    447.24238   -718.35389   0.14929643   -272.27377    27.785121 
   79000    442.10698   -696.22985   0.19278544   -255.22659    25.412883 
   80000    470.26791    -698.2542   0.18224211   -229.18313    41.723619 
   81000    437.76211   -679.65449   0.16782782   -243.00832    54.691271 
   82000    465.24773   -718.76622   0.13653037   -254.74632    36.938066 
   83000    464.58396   -746.71449   0.16934056    -283.3236    15.127481 
   84000     437.8609   -746.89788   0.16296305   -310.15806    35.502094 
   85000    470.69152   -733.99819   0.16665367   -264.52033    27.707932 
   86000    454.12315   -714.98789   0.14069687   -262.05579    36.788427 
   87000     447.0342   -732.69562   0.14948739   -286.82288    17.609984 
   88000    423.02362   -725.79891   0.16072111    -303.8551    45.544473 
   89000    478.04531   -792.96557   0.12975174    -316.1924     28.32089 
   90000    456.82701   -701.27496   0.12422861   -245.66339    37.938209 
   91000    458.54034    -756.0263   0.13526585   -298.69538    35.078432 
   92000    449.30465   -728.44489   0.16513901   -280.29271    34.005645 
   93000    463.31639   -696.48382   0.15176259   -234.37436    25.617837 
   94000    458.87062   -700.06932   0.16242324   -242.38194    23.853246 
   95000    423.30558   -679.84049    0.1508198   -257.62546    40.722159 
   96000    443.45224   -798.88854   0.14084896    -356.5959    42.750842 
   97000    451.54363    -682.5939   0.14452869   -232.22992     43.13052 
   98000    440.31748   -740.58001   0.17147057   -301.38231    43.511228 
   99000    432.95617   -712.29598    0.1705474   -280.43893    41.719413 
  100000    430.29889     -718.417   0.15874927   -289.22123     16.97661 
  101000    449.46684   -752.19351   0.14008954   -303.90467    31.096472 
  102000    456.60005   -720.70336   0.18956019   -265.25276    32.389012 
  103000    426.36924   -707.27651   0.19287441   -281.96475    40.986975 
  104000    428.70372    -691.0934   0.11804071   -263.52883    26.758932 
  105000    458.73311   -731.46798   0.16733688   -273.91279    33.537877 
  106000    487.42715    -797.8331   0.13995305   -311.69541    33.227873 
  107000    474.44242   -732.99349   0.13961827   -259.80278    36.578036 
  108000    452.41539   -703.13095   0.12555666   -251.91674     53.45467 
  109000    432.77587   -686.92264   0.17566663   -255.24024    46.832083 
  110000    445.80308   -751.05302   0.13149643   -306.42578    11.721966 
  111000    457.11486   -734.64926   0.12112127   -278.75378    14.655606 
  112000    451.69962   -732.74344   0.12994215   -282.23851     42.84584 
  113000    440.31577   -741.82543   0.16011517    -302.6408    29.176989 
  114000    434.54815   -705.73548   0.14212369   -272.31954     42.62178 
  115000    409.82845   -717.54553   0.16559428   -308.75333    36.399361 
  116000    467.26013   -722.71101   0.16754216    -256.6536    36.459231 
  117000    444.04732   -727.71377   0.12761578   -284.84103    14.742942 
  118000    436.75657   -732.70916   0.13567649   -297.09772    15.387581 
  119000     437.9235   -720.26791   0.13723458   -283.49141    37.990707 
  120000    450.51218   -768.88322    0.1633471   -319.52884    26.774687 
  121000    457.46122   -730.23997   0.10745747   -274.01282    19.921377 
  122000    446.01476    -770.0037   0.13516243   -325.16173    13.372479 
  123000    438.37483   -728.71533    0.1407992   -291.48526    43.473448 
  124000    455.54306   -695.98681   0.12750505   -241.65215     46.19941 
  125000    439.84919   -700.80912   0.13837451   -262.11143    86.989153 
  126000    447.87075   -706.13508   0.14007104   -259.43766    55.167074 
  127000    442.56664   -719.30249    0.1473078   -277.88638    23.682234 
  128000    426.31004   -752.55438   0.14241561    -327.3521    18.894306 
  129000    444.28596   -769.06704   0.15472001   -325.92925    17.763026 
  130000    450.21875   -773.55889   0.11870041   -324.54173    14.182018 
  131000     459.1835   -731.35494   0.14615356   -273.37186    44.412088 
  132000    449.50886   -748.39752   0.19910016   -300.00777    32.083256 
  133000    463.03811   -775.46085   0.12720438   -313.65343    47.623797 
  134000    475.43544   -701.14214   0.11971908   -226.98122    40.261834 
  135000    485.37533   -726.39965   0.11107907   -242.33663      24.0629 
  136000    473.50529   -760.75557   0.15016068    -288.4887     25.79059 
  137000    438.65313   -683.88445   0.16046139   -246.35723     11.04801 
  138000    462.76137   -704.01183   0.12963056   -242.47791    49.045327 
  139000    465.92281   -731.57495   0.16613973   -266.85234    20.510445 
  140000     444.8903   -714.86564   0.15438659   -271.12562    29.409674 
  141000    460.29261   -723.75491   0.13521583   -264.67692    38.785528 
  142000    432.40565   -752.61426   0.11762115   -321.35905    31.494695 
  143000    409.92526   -719.11054   0.12750255    -310.2599    14.673552 
  144000    465.90798   -733.50449   0.17526857   -268.78754    26.511161 
  145000    441.25529   -684.00773   0.17299805   -243.87345    16.004958 
  146000    468.16755   -719.77783   0.15662271   -252.82657    28.479896 
  147000    442.86018   -733.75335    0.1208531   -292.07103    27.568066 
  148000    452.92261   -745.21814   0.19171938   -293.43204    44.372124 
  149000    446.54764   -723.60686   0.15424031   -278.21451    11.236704 
  150000    447.23518   -762.16067   0.18247761   -316.05456    3.7455924 
  151000    448.96691   -718.45605   0.17176992   -270.63399    21.861585 
  152000    439.76398   -716.40404   0.16869025     -277.761    25.090466 
  153000    440.36432   -713.83495   0.12925096   -274.63277      51.3757 
  154000    459.22089     -721.426    0.1328294   -263.41897    40.488224 
  155000    441.47407   -729.33573   0.13594089   -289.02037    11.441657 
  156000    432.79664   -730.47306   0.19621722   -298.74941    19.003141 
  157000    438.93503    -710.4761   0.12248415   -272.70579    28.307309 
  158000    460.46751   -741.11268   0.15928084   -281.83623    45.296344 
  159000    463.09322   -740.16386   0.14079274    -278.2879    21.040194 
  160000    421.11046   -707.82252   0.17225614   -287.77474    45.150117 
  161000    448.96106    -733.4035   0.14219154   -285.61685    38.588578 
  162000    444.23259   -698.60489   0.17946408   -255.49558    18.555467 
  163000    445.59991   -685.23928   0.14589419   -240.80022    49.900444 
  164000    429.52544   -763.26226   0.18463803   -334.81178    29.072117 
  165000    490.68887   -779.08305    0.1693652   -289.66379    17.078141 
  166000    450.17801   -685.45205   0.14208225   -236.45213    50.020545 
  167000    414.93417   -692.55073   0.17520301   -278.65817     32.59196 
  168000    434.01714    -703.5122   0.17847802   -270.58936    34.119596 
  169000    470.31992   -738.04215   0.16875573   -268.93272    20.387067 
  170000    450.91187   -736.95564   0.12276709   -287.24332    40.326087 
  171000    454.63761   -713.90322    0.1647237   -260.43414    46.081968 
  172000    452.74194   -746.57721   0.14357825   -295.01938    24.349174 
  173000    411.80995   -697.05436   0.16160758   -286.29046    34.208363 
  174000    454.78846   -772.45217   0.14361479   -318.85378    24.838719 
  175000     426.8095    -724.8849   0.15655839   -299.17049    24.915831 
  176000     432.3294   -714.18158   0.12935783   -282.99065    36.714535 
  177000    439.67631   -718.43682   0.16679126   -279.88309    33.035028 
  178000     453.4291   -718.76488   0.16646661   -266.49902    52.273231 
  179000    427.86981   -729.88088   0.16876139   -303.09706    39.835821 
  180000    430.13994    -711.3701   0.14295685   -282.34861     33.96252 
  181000    444.89929   -705.82136   0.12598007   -262.10077    40.935503 
  182000     434.1459   -762.45852   0.11038657   -329.47539    21.204895 
  183000    431.08105   -721.85623   0.12934738      -291.91    8.1308785 
  184000    461.26158   -739.58394   0.16855834   -279.50647    37.222401 
  185000    441.15844   -747.69106   0.17163416    -307.6547    29.883973 
  186000    452.87845   -724.43022   0.12192351   -272.75793    25.291981 
  187000    423.79657   -704.92455   0.15247574   -282.21832    43.582355 
  188000    416.51601   -715.66958    0.1712859   -300.20374    19.786503 
  189000    468.13914   -741.35336   0.16025583    -274.4268    35.640833 
  190000    460.05613   -746.52718   0.14385789   -287.67634    40.923854 
  191000    457.99534   -739.62871   0.16165508   -282.81481    16.262796 
  192000    441.42253    -703.1153   0.15080547   -262.83645    29.161944 
  193000    443.49967   -712.86534   0.15351005   -270.51275    7.2099723 
  194000    454.31442   -755.26403    0.1546109   -302.12731    33.687057 
  195000    455.26082   -719.82264   0.15696366   -265.73993    13.152904 
  196000    436.28021   -744.37753   0.18317636   -309.19356     43.50934 
  197000    452.97377   -696.81455   0.17133241   -244.99782    33.951668 
  198000    467.97529   -746.31453   0.14956054   -279.56204     18.60692 
  199000     434.5576   -749.29147   0.12581852   -315.88242    41.575319 
  200000    456.60876   -736.44082   0.14341569   -281.02767    27.688783 
Loop time of 17.9288 on 6 procs for 200000 steps with 341 atoms

Performance: 963811.177 tau/day, 11155.222 timesteps/s
99.3% CPU use with 6 MPI tasks x no OpenMP threads

MPI task timing breakdown:
Section |  min time  |  avg time  |  max time  |%varavg| %total
---------------------------------------------------------------
Pair    | 9.0647     | 9.184      | 9.2844     |   2.3 | 51.22
Bond    | 0.016573   | 0.10927    | 0.41509    |  42.8 |  0.61
Neigh   | 1.5504     | 1.6224     | 1.675      |   3.7 |  9.05
Comm    | 1.8679     | 2.0051     | 2.1753     |   6.6 | 11.18
Output  | 0.025283   | 0.026332   | 0.028392   |   0.6 |  0.15
Modify  | 1.5232     | 1.5654     | 1.6594     |   3.6 |  8.73
Other   |            | 3.416      |            |       | 19.05

Nlocal:    56.8333 ave 77 max 47 min
Histogram: 1 2 1 0 0 1 0 0 0 1
Nghost:    53.5 ave 78 max 42 min
Histogram: 1 1 3 0 0 0 0 0 0 1
Neighs:    0 ave 0 max 0 min
Histogram: 6 0 0 0 0 0 0 0 0 0

Total # of neighbors = 0
Ave neighs/atom = 0
Ave special neighs/atom = 0.492669
Neighbor list builds = 49826
Dangerous builds = 0
WARNING: One or more atoms are time integrated more than once (../modify.cpp:279)
Neighbor list info ...
  update every 1 steps, delay 0 steps, check yes
  max neighbors/atom: 2000, page size: 100000
  master list distance cutoff = 4.8
  ghost atom cutoff = 4.8
  binsize = 2.4, bins = 30 30 1
  3 neighbor lists, perpetual/occasional/extra = 3 0 0
  (1) pair lj/cut, perpetual, skip from (3)
      attributes: half, newton off
      pair build: skip
      stencil: none
      bin: none
  (2) pair gayberne, perpetual, skip from (3)
      attributes: half, newton off
      pair build: skip
      stencil: none
      bin: none
  (3) neighbor class addition, perpetual
      attributes: half, newton off
      pair build: half/bin/newtoff
      stencil: half/bin/2d/newtoff
      bin: standard
  311 settings made for shape
Neighbor list info ...
  update every 1 steps, delay 0 steps, check yes
  max neighbors/atom: 2000, page size: 100000
  master list distance cutoff = 2.8
  ghost atom cutoff = 2.8
  binsize = 1.4, bins = 50 50 1
  3 neighbor lists, perpetual/occasional/extra = 3 0 0
  (1) pair lj/cut, perpetual, skip from (3)
      attributes: half, newton off
      pair build: skip
      stencil: none
      bin: none
  (2) pair soft, perpetual, skip from (3)
      attributes: half, newton off
      pair build: skip
      stencil: none
      bin: none
  (3) neighbor class addition, perpetual
      attributes: half, newton off
      pair build: half/bin/newtoff
      stencil: half/bin/2d/newtoff
      bin: standard
Per MPI rank memory allocation (min/avg/max) = 11.91 | 12.1 | 12.3 Mbytes
Step Temp E_pair E_mol TotEng Press 
  200000    456.60876            0   0.14341569    455.41315    31.722962 
  200121    456.60876            0 0.00044747513    455.27018     31.68263 
Loop time of 0.004977 on 6 procs for 121 steps with 341 atoms

94.2% CPU use with 6 MPI tasks x no OpenMP threads

Minimization stats:
  Stopping criterion = energy tolerance
  Energy initial, next-to-last, final = 
        0.143415693128  0.000447517660714  0.000447475128449
  Force two-norm initial, final = 382.044 0.867179
  Force max component initial, final = 166.727 0.334199
  Final line search alpha, max atom move = 0.0441421 0.0147523
  Iterations, force evaluations = 121 243

MPI task timing breakdown:
Section |  min time  |  avg time  |  max time  |%varavg| %total
---------------------------------------------------------------
Pair    | 9.4e-05    | 0.00012517 | 0.00018    |   0.0 |  2.51
Bond    | 1.7e-05    | 0.00012017 | 0.000475   |   0.0 |  2.41
Neigh   | 7.7e-05    | 7.8167e-05 | 8e-05      |   0.0 |  1.57
Comm    | 0.001017   | 0.0010672  | 0.001139   |   0.1 | 21.44
Output  | 0          | 0          | 0          |   0.0 |  0.00
Modify  | 4.9e-05    | 6.15e-05   | 7.7e-05    |   0.0 |  1.24
Other   |            | 0.003525   |            |       | 70.82

Nlocal:    56.8333 ave 78 max 47 min
Histogram: 2 1 1 0 1 0 0 0 0 1
Nghost:    26.8333 ave 31 max 23 min
Histogram: 2 0 0 1 0 1 0 0 0 2
Neighs:    0 ave 0 max 0 min
Histogram: 6 0 0 0 0 0 0 0 0 0

Total # of neighbors = 0
Ave neighs/atom = 0
Ave special neighs/atom = 0.492669
Neighbor list builds = 4
Dangerous builds = 0
Neighbor list info ...
  update every 1 steps, delay 0 steps, check yes
  max neighbors/atom: 2000, page size: 100000
  master list distance cutoff = 2.8
  ghost atom cutoff = 2.8
  binsize = 1.4, bins = 50 50 1
  3 neighbor lists, perpetual/occasional/extra = 3 0 0
  (1) pair lj/cut, perpetual, skip from (3)
      attributes: half, newton off
      pair build: skip
      stencil: none
      bin: none
  (2) pair soft, perpetual, skip from (3)
      attributes: half, newton off
      pair build: skip
      stencil: none
      bin: none
  (3) neighbor class addition, perpetual
      attributes: half, newton off
      pair build: half/bin/newtoff
      stencil: half/bin/2d/newtoff
      bin: standard
Per MPI rank memory allocation (min/avg/max) = 10.79 | 10.98 | 11.18 Mbytes
Step Temp E_pair E_mol TotEng Press 
       0    456.60876            0 0.00044747513    455.27018     31.68263 
    1000    459.27227   0.10740439    6.8406187    464.87345    31.723794 
    2000    459.27227   0.22569797     4.515216    462.66634    31.786193 
    3000    459.27227   0.30915592    6.0133872    464.24797    31.706622 
    4000    459.27227   0.47499852    3.4154062    461.81583     31.81529 
    5000    459.27227   0.52001685    10.753228    469.19867    31.646054 
    6000    459.27227   0.66416161     3.721919    462.31151    31.773461 
    7000    459.27227   0.81230191    2.6901327    461.42786    31.819491 
    8000    459.27227   0.85271664    4.4660314    463.24418    31.815324 
    9000    459.27227   0.92407681    6.4077528    465.25726    31.871932 
   10000    459.27227   0.94307808     4.646684    463.51519    31.865392 
   11000    459.27227    1.0340715    3.8174703    462.77697    31.894688 
   12000    459.27227    1.0567029    5.0797001    464.06183     31.79681 
   13000    459.27227    1.0862049    6.2706902    465.28232    31.798827 
   14000    459.27227    1.2476323    5.6340963    464.80716    31.861955 
   15000    459.27227    1.1947133    5.6645228    464.78466    31.896132 
   16000    459.27227    1.3587133    5.2046558     464.4888    31.841233 
   17000    459.27227    1.6124859    3.3871361    462.92505     31.90451 
   18000    459.27227     1.494074    3.6082881    463.02779    31.904362 
   19000    459.27227    1.4720522    2.3334428    461.73092    31.928964 
   20000    459.27227    1.4714387    4.7052035    464.10207    31.946781 
   21000    459.27227    1.4074351    4.9691322      464.302    31.835001 
   22000    459.27227    1.3230353    3.2365242    462.48499    31.890996 
   23000    459.27227    1.1352664    4.0427463    463.10344    31.768129 
   24000    459.27227    1.0528167    4.8376021    463.81585    31.713894 
   25000    459.27227    1.3034581    4.9261742    464.15506    31.774982 
   26000    459.27227     1.190941    6.8855922    466.00196     31.75316 
   27000    459.27227    1.2268676    4.2999728    463.45227     31.79032 
   28000    459.27227     1.231356    5.9658435    465.12263    31.795365 
   29000    459.27227    1.0917743    6.4961622    465.51336    31.830444 
   30000    459.27227    1.1784628    4.8293917    463.93328    31.837163 
   31000    459.27227    1.1546638    4.5724969    463.65259    31.875237 
   32000    459.27227    1.2212533    4.5871716    463.73385    31.793818 
   33000    459.27227    1.3340556    4.7160422    463.97553    31.777871 
   34000    459.27227    1.3519109    6.2183988    465.49574    31.801614 
   35000    459.27227    1.2966914    5.8221245    465.04424    31.825735 
   36000    459.27227    1.3102225    5.0335759    464.26923    31.847437 
   37000    459.27227    1.1810553    5.4482747    464.55476    31.751023 
   38000    459.27227    1.2624418    5.1261597    464.31403    31.812971 
   39000    459.27227    1.3245486    5.7791618    465.02914    31.810988 
   40000    459.27227    1.5312636    6.0210061     465.4777    31.887752 
   41000    459.27227    1.3787733    4.3120754    463.61628    31.837976 
   42000    459.27227    1.2380921    6.7448916    465.90841    31.756041 
   43000    459.27227    1.2167687    5.6001457    464.74234    31.761696 
   44000    459.27227    1.2575088     8.469606    467.65254    31.768403 
   45000    459.27227    1.1959115    5.0233811    464.14472    31.826002 
   46000    459.27227    1.3021194    5.2120738    464.43962    31.844485 
   47000    459.27227    1.4239392    3.8592423    463.20861    31.898248 
   48000    459.27227    1.4105797    5.4363205    464.77233    31.886778 
   49000    459.27227    1.3484615    7.3109835    466.58487    31.917985 
   50000    459.27227    1.4282459    3.8928482    463.24652    31.963654 
   51000    459.27227    1.4837356    5.5172378     464.9264    31.929785 
   52000    459.27227    1.6994025    6.6089376    466.23377    31.937349 
   53000    459.27227    1.6104398    6.4699238    466.00579    31.878345 
   54000    459.27227    1.5162662    4.8528444    464.29454    31.917851 
   55000    459.27227    1.7825262     7.032762    466.74072    31.887071 
   56000    459.27227    1.6994387    4.6950557    464.31992    32.030113 
   57000    459.27227    1.5741621    6.0994403    465.59903     31.93386 
   58000    459.27227    1.9099416    4.3386942    464.17406    32.136483 
   59000    459.27227    1.7715816    3.8669593    463.56397    32.082863 
   60000    459.27227     1.767646    5.0893378    464.78241    32.001737 
   61000    459.27227    1.7741122    6.6744431    466.37398    32.019139 
   62000    459.27227    1.8175853    3.8424456    463.58546    32.093645 
   63000    459.27227    2.0156774    6.3152113    466.25632     32.09478 
   64000    459.27227    1.5257249    5.7325985    465.18375    31.976997 
   65000    459.27227    1.7786113    6.8898508    466.59389    32.058289 
   66000    459.27227     1.665674    5.3291813    464.92028    32.042994 
   67000    459.27227    1.7385345    4.5677187    464.23168    32.107209 
   68000    459.27227    1.8545284     4.280927    464.06088    32.076114 
   69000    459.27227    2.0549287    4.1057915    464.08615    32.076128 
   70000    459.27227    1.8045572    3.7176357    463.44762     32.09456 
   71000    459.27227    1.7377536    6.1126117    465.77579    32.071412 
   72000    459.27227     1.823304    5.2322135    464.98095    32.166187 
   73000    459.27227    1.9203601    4.9751905    464.82098    32.071419 
   74000    459.27227    2.0030623    3.1825057      463.111    32.151479 
   75000    459.27227    2.2855222    2.5167472     462.7277    32.272849 
   76000    459.27227      1.66012    5.9138163    465.49936    32.077866 
   77000    459.27227    1.9250957    4.4346672    464.28519     32.27953 
   78000    459.27227    2.0759952    6.0210574    466.02248    32.193351 
   79000    459.27227     2.144024    4.7864068    464.85586     32.14769 
   80000    459.27227    2.1381954    4.7060038    464.76963    32.231118 
   81000    459.27227    2.3058224    5.2490425    465.48029    32.211769 
   82000    459.27227    2.2348456    6.2868407    466.44711    32.185365 
   83000    459.27227    2.1996922    3.1772815     463.3024    32.247828 
   84000    459.27227    2.3607152    4.6887778    464.97492    32.246279 
   85000    459.27227    2.2811877    2.8712956    463.07791    32.190804 
   86000    459.27227    2.1011317    6.7639874    466.79055    32.237891 
   87000    459.27227    2.3439181    5.4135455    465.68289    32.279404 
   88000    459.27227     2.087117    3.9336904    463.94624    32.245129 
   89000    459.27227     2.232363    6.0746769    466.23247    32.251975 
   90000    459.27227    2.3522628    4.2889995    464.56669    32.218532 
Loop time of 2.04054 on 6 procs for 90000 steps with 341 atoms

Performance: 38107578.439 tau/day, 44105.994 timesteps/s
99.1% CPU use with 6 MPI tasks x no OpenMP threads

MPI task timing breakdown:
Section |  min time  |  avg time  |  max time  |%varavg| %total
---------------------------------------------------------------
Pair    | 0.053551   | 0.077781   | 0.15516    |  12.6 |  3.81
Bond    | 0.006999   | 0.050462   | 0.20512    |  31.9 |  2.47
Neigh   | 0.019412   | 0.019876   | 0.020342   |   0.2 |  0.97
Comm    | 0.49513    | 0.52585    | 0.54965    |   2.5 | 25.77
Output  | 0.011142   | 0.011337   | 0.012227   |   0.4 |  0.56
Modify  | 0.90238    | 1.0927     | 1.1758     |   8.5 | 53.55
Other   |            | 0.2625     |            |       | 12.86

Nlocal:    56.8333 ave 80 max 46 min
Histogram: 1 2 1 0 1 0 0 0 0 1
Nghost:    27.6667 ave 37 max 22 min
Histogram: 2 0 1 1 0 0 1 0 0 1
Neighs:    0.833333 ave 3 max 0 min
Histogram: 4 0 0 0 0 0 1 0 0 1

Total # of neighbors = 5
Ave neighs/atom = 0.0146628
Ave special neighs/atom = 0.492669
Neighbor list builds = 756
Dangerous builds = 0
Neighbor list info ...
  update every 1 steps, delay 0 steps, check yes
  max neighbors/atom: 2000, page size: 100000
  master list distance cutoff = 2.8
  ghost atom cutoff = 2.8
  binsize = 1.4, bins = 50 50 1
  3 neighbor lists, perpetual/occasional/extra = 3 0 0
  (1) pair lj/cut, perpetual, skip from (3)
      attributes: half, newton off
      pair build: skip
      stencil: none
      bin: none
  (2) pair soft, perpetual, skip from (3)
      attributes: half, newton off
      pair build: skip
      stencil: none
      bin: none
  (3) neighbor class addition, perpetual
      attributes: half, newton off
      pair build: half/bin/newtoff
      stencil: half/bin/2d/newtoff
      bin: standard

Please see the log.cite file for references relevant to this simulation

Total wall time: 0:00:27
